 argument  1 = /scratch/owengray/h2_scf_test1/h2_scf_test1.nw



============================== echo of input deck ==============================
echo

start h2_scf_test1
title "H2 in STO-3G basis set"

scratch_dir /scratch/owengray/h2_scf_test1/

geometry units au
symmetry d2
	H	0	0.5	0
end
basis
	H library STO-3G
end

charge 0
scf
	rohf
	vectors output h2_scf_test.movecs
end
task scf optimize
task scf energy

tddft
	cis
	print debug
	notriplet
	civecs
end
TASK TDDFT energy

dplot
	root 1
	limitxyz
		-2 2 50
		-2 2 50
		-2 2 50
		gaussian
		output root1.cube
end
task dplot
================================================================================


                                         
                                         


              Northwest Computational Chemistry Package (NWChem) 6.6
              ------------------------------------------------------


                    Environmental Molecular Sciences Laboratory
                       Pacific Northwest National Laboratory
                                Richland, WA 99352

                              Copyright (c) 1994-2015
                       Pacific Northwest National Laboratory
                            Battelle Memorial Institute

             NWChem is an open-source computational chemistry package
                        distributed under the terms of the
                      Educational Community License (ECL) 2.0
             A copy of the license is included with this distribution
                              in the LICENSE.TXT file

                                  ACKNOWLEDGMENT
                                  --------------

            This software and its documentation were developed at the
            EMSL at Pacific Northwest National Laboratory, a multiprogram
            national laboratory, operated for the U.S. Department of Energy
            by Battelle under Contract Number DE-AC05-76RL01830. Support
            for this work was provided by the Department of Energy Office
            of Biological and Environmental Research, Office of Basic
            Energy Sciences, and the Office of Advanced Scientific Computing.


           Job information
           ---------------

    hostname        = g25
    program         = /cm/shared/NWChem/bin/nwchem
    date            = Tue Jun 28 12:03:58 2016

    compiled        = Wed_Jan_27_15:20:39_2016
    source          = /cm/shared/nwchem-6.6
    nwchem branch   = 6.6
    nwchem revision = 27746
    ga revision     = 10594
    input           = /scratch/owengray/h2_scf_test1/h2_scf_test1.nw
    prefix          = h2_scf_test1.
    data base       = ./h2_scf_test1.db
    status          = startup
    nproc           =       20
    time left       =     -1s



           Memory information
           ------------------

    heap     =  210617852 doubles =   1606.9 Mbytes
    stack    =  210617857 doubles =   1606.9 Mbytes
    global   =  421235712 doubles =   3213.8 Mbytes (distinct from heap & stack)
    total    =  842471421 doubles =   6427.5 Mbytes
    verify   = yes
    hardfail = no 


           Directory information
           ---------------------

  0 permanent = .
  0 scratch   = /scratch/owengray/h2_scf_test1/




                                NWChem Input Module
                                -------------------


                              H2 in STO-3G basis set
                              ----------------------


                             Geometry "geometry" -> ""
                             -------------------------

 Output coordinates in a.u. (scale by  1.000000000 to convert to a.u.)

  No.       Tag          Charge          X              Y              Z
 ---- ---------------- ---------- -------------- -------------- --------------
    1 H                    1.0000     0.00000000     0.50000000     0.00000000
    2 H                    1.0000     0.00000000    -0.50000000     0.00000000

      Atomic Mass 
      ----------- 

      H                  1.007825


 Effective nuclear repulsion energy (a.u.)       1.0000000000

            Nuclear Dipole moment (a.u.) 
            ----------------------------
        X                 Y               Z
 ---------------- ---------------- ----------------
     0.0000000000     0.0000000000     0.0000000000

      Symmetry information
      --------------------

 Group name             D2        
 Group number             11
 Group order               4
 No. of unique centers     1

      Symmetry unique atoms

     1


            XYZ format geometry
            -------------------
     2
 geometry
 H                     0.00000000     0.26458862     0.00000000
 H                     0.00000000    -0.26458862     0.00000000

 ==============================================================================
                                internuclear distances
 ------------------------------------------------------------------------------
       center one      |      center two      | atomic units |       a.u.
 ------------------------------------------------------------------------------
    2 H                |   1 H                |     1.00000  |     1.00000
 ------------------------------------------------------------------------------
                         number of included internuclear distances:          1
 ==============================================================================



  library name resolved from: environment
  library file name is: </cm/shared/NWChem/data/libraries/>
  
                      Basis "ao basis" -> "" (cartesian)
                      -----
  H (Hydrogen)
  ------------
            Exponent  Coefficients 
       -------------- ---------------------------------------------------------
  1 S  3.42525091E+00  0.154329
  1 S  6.23913730E-01  0.535328
  1 S  1.68855400E-01  0.444635



 Summary of "ao basis" -> "" (cartesian)
 ------------------------------------------------------------------------------
       Tag                 Description            Shells   Functions and Types
 ---------------- ------------------------------  ------  ---------------------
 H                           STO-3G                  1        1   1s




                           NWChem Geometry Optimization
                           ----------------------------




                              H2 in STO-3G basis set


 maximum gradient threshold         (gmax) =   0.000450
 rms gradient threshold             (grms) =   0.000300
 maximum cartesian step threshold   (xmax) =   0.001800
 rms cartesian step threshold       (xrms) =   0.001200
 fixed trust radius                (trust) =   0.300000
 maximum step size to saddle      (sadstp) =   0.100000
 energy precision                  (eprec) =   1.0D-07
 maximum number of steps          (nptopt) =   20
 initial hessian option           (inhess) =    0
 line search option               (linopt) =    1
 hessian update option            (modupd) =    1
 saddle point option              (modsad) =    0
 initial eigen-mode to follow     (moddir) =    0
 initial variable to follow       (vardir) =    0
 follow first negative mode     (firstneg) =    T
 apply conjugacy                    (opcg) =    F
 source of zmatrix                         =           


          -------------------
          Energy Minimization
          -------------------


 Using diagonal initial Hessian 

          --------
          Step   0
          --------


                         Geometry "geometry" -> "geometry"
                         ---------------------------------

 Output coordinates in a.u. (scale by  1.000000000 to convert to a.u.)

  No.       Tag          Charge          X              Y              Z
 ---- ---------------- ---------- -------------- -------------- --------------
    1 H                    1.0000     0.00000000     0.50000000     0.00000000
    2 H                    1.0000     0.00000000    -0.50000000     0.00000000

      Atomic Mass 
      ----------- 

      H                  1.007825


 Effective nuclear repulsion energy (a.u.)       1.0000000000

            Nuclear Dipole moment (a.u.) 
            ----------------------------
        X                 Y               Z
 ---------------- ---------------- ----------------
     0.0000000000     0.0000000000     0.0000000000

      Symmetry information
      --------------------

 Group name             D2        
 Group number             11
 Group order               4
 No. of unique centers     1

      Symmetry unique atoms

     1

                                 NWChem SCF Module
                                 -----------------


                              H2 in STO-3G basis set



  ao basis        = "ao basis"
  functions       =     2
  atoms           =     2
  closed shells   =     1
  open shells     =     0
  charge          =   0.00
  wavefunction    = RHF 
  input vectors   = atomic
  output vectors  = ./h2_scf_test.movecs
  use symmetry    = T
  symmetry adapt  = T


 Summary of "ao basis" -> "ao basis" (cartesian)
 ------------------------------------------------------------------------------
       Tag                 Description            Shells   Functions and Types
 ---------------- ------------------------------  ------  ---------------------
 H                           STO-3G                  1        1   1s


      Symmetry analysis of basis
      --------------------------

        a1          1
        b1          0
        b2          1
        b3          0


 Forming initial guess at       0.1s


      Superposition of Atomic Density Guess
      -------------------------------------

 Sum of atomic energies:          -0.93316370

      Non-variational initial energy
      ------------------------------

 Total energy =      -0.747448
 1-e energy   =      -2.556977
 2-e energy   =       0.809530
 HOMO         =      -0.622992
 LUMO         =       0.891505


      Symmetry analysis of molecular orbitals - initial
      -------------------------------------------------

  Numbering of irreducible representations: 

     1 a1          2 b1          3 b2          4 b3      

  Orbital symmetries:

     1 a1          2 b2      


 Starting SCF solution at       0.1s



 ----------------------------------------------
         Quadratically convergent ROHF

 Convergence threshold     :          1.000E-04
 Maximum no. of iterations :           30
 Final Fock-matrix accuracy:          1.000E-07
 ----------------------------------------------


              iter       energy          gnorm     gmax       time
             ----- ------------------- --------- --------- --------
                 1       -1.0659994621  0.00D+00  0.00D+00      0.0


       Final RHF  results 
       ------------------ 

         Total SCF energy =     -1.065999462147
      One-electron energy =     -2.780438541177
      Two-electron energy =      0.714439079030
 Nuclear repulsion energy =      1.000000000000

        Time for solution =      0.0s



       Symmetry analysis of molecular orbitals - final
       -----------------------------------------------

  Numbering of irreducible representations: 

     1 a1          2 b1          3 b2          4 b3      

  Orbital symmetries:

     1 a1          2 b2      

             Final eigenvalues
             -----------------

              1      
    1   -0.6758
    2    0.9418

                       ROHF Final Molecular Orbital Analysis
                       -------------------------------------

 Vector    1  Occ=2.000000D+00  E=-6.757802D-01  Symmetry=a1
              MO Center=  0.0D+00,  0.0D+00,  0.0D+00, r^2= 6.1D-01
   Bfn.  Coefficient  Atom+Function         Bfn.  Coefficient  Atom+Function  
  ----- ------------  ---------------      ----- ------------  ---------------
     1      0.527546  1 H  s                  2      0.527546  2 H  s          

 Vector    2  Occ=0.000000D+00  E= 9.418116D-01  Symmetry=b2
              MO Center=  0.0D+00,  0.0D+00,  0.0D+00, r^2= 6.6D-01
   Bfn.  Coefficient  Atom+Function         Bfn.  Coefficient  Atom+Function  
  ----- ------------  ---------------      ----- ------------  ---------------
     1      1.567823  1 H  s                  2     -1.567823  2 H  s          


 center of mass
 --------------
 x =   0.00000000 y =   0.00000000 z =   0.00000000

 moments of inertia (a.u.)
 ------------------
           0.503912500000           0.000000000000           0.000000000000
           0.000000000000           0.000000000000           0.000000000000
           0.000000000000           0.000000000000           0.503912500000

  Mulliken analysis of the total density
  --------------------------------------

    Atom       Charge   Shell Charges
 -----------   ------   -------------------------------------------------------
    1 H    1     1.00   1.00
    2 H    1     1.00   1.00

       Multipole analysis of the density wrt the origin
       ------------------------------------------------

     L   x y z        total         open         nuclear
     -   - - -        -----         ----         -------
     0   0 0 0     -0.000000      0.000000      2.000000

     1   1 0 0      0.000000      0.000000      0.000000
     1   0 1 0      0.000000      0.000000      0.000000
     1   0 0 1      0.000000      0.000000      0.000000

     2   2 0 0     -1.346500      0.000000      0.000000
     2   1 1 0      0.000000      0.000000      0.000000
     2   1 0 1      0.000000      0.000000      0.000000
     2   0 2 0     -1.168442      0.000000      0.500000
     2   0 1 1      0.000000      0.000000      0.000000
     2   0 0 2     -1.346500      0.000000      0.000000

                              NWChem Gradients Module
                              -----------------------


                              H2 in STO-3G basis set


  wavefunction    =   RHF     

  Using symmetry


                         RHF ENERGY GRADIENTS

    atom               coordinates                        gradient
                 x          y          z           x          y          z
   1 H       0.000000   0.500000   0.000000    0.000000  -0.365043   0.000000
   2 H       0.000000  -0.500000   0.000000    0.000000   0.365043   0.000000

                 ----------------------------------------
                 |  Time  |  1-e(secs)   |  2-e(secs)   |
                 ----------------------------------------
                 |  CPU   |       0.00   |       0.00   |
                 ----------------------------------------
                 |  WALL  |       0.00   |       0.00   |
                 ----------------------------------------

@ Step       Energy      Delta E   Gmax     Grms     Xrms     Xmax   Walltime
@ ---- ---------------- -------- -------- -------- -------- -------- --------
@    0      -1.06599946  0.0D+00  0.36504  0.21076  0.00000  0.00000      0.1
                                                                    

 Restricting large step in mode    1 eval= 7.9D-01 step= 6.6D-01 new= 3.0D-01
                                 NWChem SCF Module
                                 -----------------


                              H2 in STO-3G basis set



  ao basis        = "ao basis"
  functions       =     2
  atoms           =     2
  closed shells   =     1
  open shells     =     0
  charge          =   0.00
  wavefunction    = RHF 
  input vectors   = ./h2_scf_test.movecs
  output vectors  = ./h2_scf_test.movecs
  use symmetry    = T
  symmetry adapt  = T


 Summary of "ao basis" -> "ao basis" (cartesian)
 ------------------------------------------------------------------------------
       Tag                 Description            Shells   Functions and Types
 ---------------- ------------------------------  ------  ---------------------
 H                           STO-3G                  1        1   1s


      Symmetry analysis of basis
      --------------------------

        a1          1
        b1          0
        b2          1
        b3          0


 Forming initial guess at       0.1s


 Loading old vectors from job with title :

H2 in STO-3G basis set


      Symmetry analysis of molecular orbitals - initial
      -------------------------------------------------

  Numbering of irreducible representations: 

     1 a1          2 b1          3 b2          4 b3      

  Orbital symmetries:

     1 a1          2 b2      


 Starting SCF solution at       0.1s



 ----------------------------------------------
         Quadratically convergent ROHF

 Convergence threshold     :          1.000E-04
 Maximum no. of iterations :           30
 Final Fock-matrix accuracy:          1.000E-07
 ----------------------------------------------


              iter       energy          gnorm     gmax       time
             ----- ------------------- --------- --------- --------
                 1       -1.1158856207  0.00D+00  0.00D+00      0.1


       Final RHF  results 
       ------------------ 

         Total SCF energy =     -1.115885620662
      One-electron energy =     -2.490147099266
      Two-electron energy =      0.672144489229
 Nuclear repulsion energy =      0.702116989376

        Time for solution =      0.0s



       Symmetry analysis of molecular orbitals - final
       -----------------------------------------------

  Numbering of irreducible representations: 

     1 a1          2 b1          3 b2          4 b3      

  Orbital symmetries:

     1 a1          2 b2      

             Final eigenvalues
             -----------------

              1      
    1   -0.5729
    2    0.6572

                       ROHF Final Molecular Orbital Analysis
                       -------------------------------------

 Vector    1  Occ=2.000000D+00  E=-5.729291D-01  Symmetry=a1
              MO Center=  0.0D+00,  0.0D+00,  0.0D+00, r^2= 6.7D-01
   Bfn.  Coefficient  Atom+Function         Bfn.  Coefficient  Atom+Function  
  ----- ------------  ---------------      ----- ------------  ---------------
     1      0.550328  1 H  s                  2      0.550328  2 H  s          

 Vector    2  Occ=0.000000D+00  E= 6.571862D-01  Symmetry=b2
              MO Center=  0.0D+00,  0.0D+00,  0.0D+00, r^2= 7.5D-01
   Bfn.  Coefficient  Atom+Function         Bfn.  Coefficient  Atom+Function  
  ----- ------------  ---------------      ----- ------------  ---------------
     1      1.196810  1 H  s                  2     -1.196810  2 H  s          


 center of mass
 --------------
 x =   0.00000000 y =   0.00000000 z =   0.00000000

 moments of inertia (a.u.)
 ------------------
           1.022200685050           0.000000000000           0.000000000000
           0.000000000000           0.000000000000           0.000000000000
           0.000000000000           0.000000000000           1.022200685050

  Mulliken analysis of the total density
  --------------------------------------

    Atom       Charge   Shell Charges
 -----------   ------   -------------------------------------------------------
    1 H    1     1.00   1.00
    2 H    1     1.00   1.00

       Multipole analysis of the density wrt the origin
       ------------------------------------------------

     L   x y z        total         open         nuclear
     -   - - -        -----         ----         -------
     0   0 0 0     -0.000000      0.000000      2.000000

     1   1 0 0      0.000000      0.000000      0.000000
     1   0 1 0      0.000000      0.000000      0.000000
     1   0 0 1      0.000000      0.000000      0.000000

     2   2 0 0     -1.375214      0.000000      0.000000
     2   1 1 0      0.000000      0.000000      0.000000
     2   1 0 1      0.000000      0.000000      0.000000
     2   0 2 0     -1.053810      0.000000      1.014264
     2   0 1 1      0.000000      0.000000      0.000000
     2   0 0 2     -1.375214      0.000000      0.000000

 Line search: 
     step= 1.00 grad=-1.5D-01 hess= 1.0D-01 energy=     -1.115886 mode=downhill
 new step= 0.74                   predicted energy=     -1.123116

          --------
          Step   1
          --------


                         Geometry "geometry" -> "geometry"
                         ---------------------------------

 Output coordinates in a.u. (scale by  1.000000000 to convert to a.u.)

  No.       Tag          Charge          X              Y              Z
 ---- ---------------- ---------- -------------- -------------- --------------
    1 H                    1.0000     0.00000000     0.65646408     0.00000000
    2 H                    1.0000     0.00000000    -0.65646408     0.00000000

      Atomic Mass 
      ----------- 

      H                  1.007825


 Effective nuclear repulsion energy (a.u.)       0.7616562961

            Nuclear Dipole moment (a.u.) 
            ----------------------------
        X                 Y               Z
 ---------------- ---------------- ----------------
     0.0000000000     0.0000000000     0.0000000000

      Symmetry information
      --------------------

 Group name             D2        
 Group number             11
 Group order               4
 No. of unique centers     1

      Symmetry unique atoms

     1

                                 NWChem SCF Module
                                 -----------------


                              H2 in STO-3G basis set



  ao basis        = "ao basis"
  functions       =     2
  atoms           =     2
  closed shells   =     1
  open shells     =     0
  charge          =   0.00
  wavefunction    = RHF 
  input vectors   = ./h2_scf_test.movecs
  output vectors  = ./h2_scf_test.movecs
  use symmetry    = T
  symmetry adapt  = T


 Summary of "ao basis" -> "ao basis" (cartesian)
 ------------------------------------------------------------------------------
       Tag                 Description            Shells   Functions and Types
 ---------------- ------------------------------  ------  ---------------------
 H                           STO-3G                  1        1   1s


      Symmetry analysis of basis
      --------------------------

        a1          1
        b1          0
        b2          1
        b3          0


 Forming initial guess at       0.1s


 Loading old vectors from job with title :

H2 in STO-3G basis set


      Symmetry analysis of molecular orbitals - initial
      -------------------------------------------------

  Numbering of irreducible representations: 

     1 a1          2 b1          3 b2          4 b3      

  Orbital symmetries:

     1 a1          2 b2      


 Starting SCF solution at       0.1s



 ----------------------------------------------
         Quadratically convergent ROHF

 Convergence threshold     :          1.000E-04
 Maximum no. of iterations :           30
 Final Fock-matrix accuracy:          1.000E-07
 ----------------------------------------------


              iter       energy          gnorm     gmax       time
             ----- ------------------- --------- --------- --------
                 1       -1.1171828226  0.00D+00  0.00D+00      0.1


       Final RHF  results 
       ------------------ 

         Total SCF energy =     -1.117182822555
      One-electron energy =     -2.562225746050
      Two-electron energy =      0.683386627363
 Nuclear repulsion energy =      0.761656296132

        Time for solution =      0.0s



       Symmetry analysis of molecular orbitals - final
       -----------------------------------------------

  Numbering of irreducible representations: 

     1 a1          2 b1          3 b2          4 b3      

  Orbital symmetries:

     1 a1          2 b2      

             Final eigenvalues
             -----------------

              1      
    1   -0.5977
    2    0.7200

                       ROHF Final Molecular Orbital Analysis
                       -------------------------------------

 Vector    1  Occ=2.000000D+00  E=-5.977262D-01  Symmetry=a1
              MO Center=  0.0D+00,  0.0D+00,  0.0D+00, r^2= 6.6D-01
   Bfn.  Coefficient  Atom+Function         Bfn.  Coefficient  Atom+Function  
  ----- ------------  ---------------      ----- ------------  ---------------
     1      0.544006  1 H  s                  2      0.544006  2 H  s          

 Vector    2  Occ=0.000000D+00  E= 7.200467D-01  Symmetry=b2
              MO Center=  0.0D+00,  0.0D+00,  0.0D+00, r^2= 7.2D-01
   Bfn.  Coefficient  Atom+Function         Bfn.  Coefficient  Atom+Function  
  ----- ------------  ---------------      ----- ------------  ---------------
     1      1.269018  1 H  s                  2     -1.269018  2 H  s          


 center of mass
 --------------
 x =   0.00000000 y =   0.00000000 z =   0.00000000

 moments of inertia (a.u.)
 ------------------
           0.868634468277           0.000000000000           0.000000000000
           0.000000000000           0.000000000000           0.000000000000
           0.000000000000           0.000000000000           0.868634468277

  Mulliken analysis of the total density
  --------------------------------------

    Atom       Charge   Shell Charges
 -----------   ------   -------------------------------------------------------
    1 H    1     1.00   1.00
    2 H    1     1.00   1.00

       Multipole analysis of the density wrt the origin
       ------------------------------------------------

     L   x y z        total         open         nuclear
     -   - - -        -----         ----         -------
     0   0 0 0     -0.000000      0.000000      2.000000

     1   1 0 0      0.000000      0.000000      0.000000
     1   0 1 0      0.000000      0.000000      0.000000
     1   0 0 1      0.000000      0.000000      0.000000

     2   2 0 0     -1.368076      0.000000      0.000000
     2   1 1 0      0.000000      0.000000      0.000000
     2   1 0 1      0.000000      0.000000      0.000000
     2   0 2 0     -1.085434      0.000000      0.861890
     2   0 1 1      0.000000      0.000000      0.000000
     2   0 0 2     -1.368076      0.000000      0.000000

                              NWChem Gradients Module
                              -----------------------


                              H2 in STO-3G basis set


  wavefunction    =   RHF     

  Using symmetry


                         RHF ENERGY GRADIENTS

    atom               coordinates                        gradient
                 x          y          z           x          y          z
   1 H       0.000000   0.656464   0.000000    0.000000  -0.019935   0.000000
   2 H       0.000000  -0.656464   0.000000    0.000000   0.019935   0.000000

                 ----------------------------------------
                 |  Time  |  1-e(secs)   |  2-e(secs)   |
                 ----------------------------------------
                 |  CPU   |       0.00   |       0.00   |
                 ----------------------------------------
                 |  WALL  |       0.00   |       0.00   |
                 ----------------------------------------

  Step       Energy      Delta E   Gmax     Grms     Xrms     Xmax   Walltime
  ---- ---------------- -------- -------- -------- -------- -------- --------
@    1      -1.11718282 -5.1D-02  0.01994  0.01151  0.09033  0.15646      0.2
                                                                    

                                 NWChem SCF Module
                                 -----------------


                              H2 in STO-3G basis set



  ao basis        = "ao basis"
  functions       =     2
  atoms           =     2
  closed shells   =     1
  open shells     =     0
  charge          =   0.00
  wavefunction    = RHF 
  input vectors   = ./h2_scf_test.movecs
  output vectors  = ./h2_scf_test.movecs
  use symmetry    = T
  symmetry adapt  = T


 Summary of "ao basis" -> "ao basis" (cartesian)
 ------------------------------------------------------------------------------
       Tag                 Description            Shells   Functions and Types
 ---------------- ------------------------------  ------  ---------------------
 H                           STO-3G                  1        1   1s


      Symmetry analysis of basis
      --------------------------

        a1          1
        b1          0
        b2          1
        b3          0


 Forming initial guess at       0.2s


 Loading old vectors from job with title :

H2 in STO-3G basis set


      Symmetry analysis of molecular orbitals - initial
      -------------------------------------------------

  Numbering of irreducible representations: 

     1 a1          2 b1          3 b2          4 b3      

  Orbital symmetries:

     1 a1          2 b2      


 Starting SCF solution at       0.2s



 ----------------------------------------------
         Quadratically convergent ROHF

 Convergence threshold     :          1.000E-04
 Maximum no. of iterations :           30
 Final Fock-matrix accuracy:          1.000E-07
 ----------------------------------------------


              iter       energy          gnorm     gmax       time
             ----- ------------------- --------- --------- --------
                 1       -1.1174411362  0.00D+00  0.00D+00      0.1


       Final RHF  results 
       ------------------ 

         Total SCF energy =     -1.117441136170
      One-electron energy =     -2.550315380437
      Two-electron energy =      0.681562130467
 Nuclear repulsion energy =      0.751312113800

        Time for solution =      0.0s



       Symmetry analysis of molecular orbitals - final
       -----------------------------------------------

  Numbering of irreducible representations: 

     1 a1          2 b1          3 b2          4 b3      

  Orbital symmetries:

     1 a1          2 b2      

             Final eigenvalues
             -----------------

              1      
    1   -0.5936
    2    0.7093

                       ROHF Final Molecular Orbital Analysis
                       -------------------------------------

 Vector    1  Occ=2.000000D+00  E=-5.935956D-01  Symmetry=a1
              MO Center=  0.0D+00,  0.0D+00,  0.0D+00, r^2= 6.6D-01
   Bfn.  Coefficient  Atom+Function         Bfn.  Coefficient  Atom+Function  
  ----- ------------  ---------------      ----- ------------  ---------------
     1      0.545019  1 H  s                  2      0.545019  2 H  s          

 Vector    2  Occ=0.000000D+00  E= 7.093327D-01  Symmetry=b2
              MO Center=  0.0D+00,  0.0D+00,  0.0D+00, r^2= 7.3D-01
   Bfn.  Coefficient  Atom+Function         Bfn.  Coefficient  Atom+Function  
  ----- ------------  ---------------      ----- ------------  ---------------
     1      1.256385  1 H  s                  2     -1.256385  2 H  s          


 center of mass
 --------------
 x =   0.00000000 y =   0.00000000 z =   0.00000000

 moments of inertia (a.u.)
 ------------------
           0.892718118071           0.000000000000           0.000000000000
           0.000000000000           0.000000000000           0.000000000000
           0.000000000000           0.000000000000           0.892718118071

  Mulliken analysis of the total density
  --------------------------------------

    Atom       Charge   Shell Charges
 -----------   ------   -------------------------------------------------------
    1 H    1     1.00   1.00
    2 H    1     1.00   1.00

       Multipole analysis of the density wrt the origin
       ------------------------------------------------

     L   x y z        total         open         nuclear
     -   - - -        -----         ----         -------
     0   0 0 0     -0.000000      0.000000      2.000000

     1   1 0 0      0.000000      0.000000      0.000000
     1   0 1 0      0.000000      0.000000      0.000000
     1   0 0 1      0.000000      0.000000      0.000000

     2   2 0 0     -1.369262      0.000000      0.000000
     2   1 1 0      0.000000      0.000000      0.000000
     2   1 0 1      0.000000      0.000000      0.000000
     2   0 2 0     -1.080343      0.000000      0.885787
     2   0 1 1      0.000000      0.000000      0.000000
     2   0 0 2     -1.369262      0.000000      0.000000

 Line search: 
     step= 1.00 grad=-3.6D-04 hess= 1.0D-04 energy=     -1.117441 mode=downhill
 new step= 1.77                   predicted energy=     -1.117501

          --------
          Step   2
          --------


                         Geometry "geometry" -> "geometry"
                         ---------------------------------

 Output coordinates in a.u. (scale by  1.000000000 to convert to a.u.)

  No.       Tag          Charge          X              Y              Z
 ---- ---------------- ---------- -------------- -------------- --------------
    1 H                    1.0000     0.00000000     0.67242204     0.00000000
    2 H                    1.0000     0.00000000    -0.67242204     0.00000000

      Atomic Mass 
      ----------- 

      H                  1.007825


 Effective nuclear repulsion energy (a.u.)       0.7435806270

            Nuclear Dipole moment (a.u.) 
            ----------------------------
        X                 Y               Z
 ---------------- ---------------- ----------------
     0.0000000000     0.0000000000     0.0000000000

      Symmetry information
      --------------------

 Group name             D2        
 Group number             11
 Group order               4
 No. of unique centers     1

      Symmetry unique atoms

     1

                                 NWChem SCF Module
                                 -----------------


                              H2 in STO-3G basis set



  ao basis        = "ao basis"
  functions       =     2
  atoms           =     2
  closed shells   =     1
  open shells     =     0
  charge          =   0.00
  wavefunction    = RHF 
  input vectors   = ./h2_scf_test.movecs
  output vectors  = ./h2_scf_test.movecs
  use symmetry    = T
  symmetry adapt  = T


 Summary of "ao basis" -> "ao basis" (cartesian)
 ------------------------------------------------------------------------------
       Tag                 Description            Shells   Functions and Types
 ---------------- ------------------------------  ------  ---------------------
 H                           STO-3G                  1        1   1s


      Symmetry analysis of basis
      --------------------------

        a1          1
        b1          0
        b2          1
        b3          0


 Forming initial guess at       0.2s


 Loading old vectors from job with title :

H2 in STO-3G basis set


      Symmetry analysis of molecular orbitals - initial
      -------------------------------------------------

  Numbering of irreducible representations: 

     1 a1          2 b1          3 b2          4 b3      

  Orbital symmetries:

     1 a1          2 b2      


 Starting SCF solution at       0.2s



 ----------------------------------------------
         Quadratically convergent ROHF

 Convergence threshold     :          1.000E-04
 Maximum no. of iterations :           30
 Final Fock-matrix accuracy:          1.000E-07
 ----------------------------------------------


              iter       energy          gnorm     gmax       time
             ----- ------------------- --------- --------- --------
                 1       -1.1175055535  0.00D+00  0.00D+00      0.1


       Final RHF  results 
       ------------------ 

         Total SCF energy =     -1.117505553521
      One-electron energy =     -2.541250929525
      Two-electron energy =      0.680164749026
 Nuclear repulsion energy =      0.743580626978

        Time for solution =      0.0s



       Symmetry analysis of molecular orbitals - final
       -----------------------------------------------

  Numbering of irreducible representations: 

     1 a1          2 b1          3 b2          4 b3      

  Orbital symmetries:

     1 a1          2 b2      

             Final eigenvalues
             -----------------

              1      
    1   -0.5905
    2    0.7013

                       ROHF Final Molecular Orbital Analysis
                       -------------------------------------

 Vector    1  Occ=2.000000D+00  E=-5.904607D-01  Symmetry=a1
              MO Center=  0.0D+00,  0.0D+00,  0.0D+00, r^2= 6.6D-01
   Bfn.  Coefficient  Atom+Function         Bfn.  Coefficient  Atom+Function  
  ----- ------------  ---------------      ----- ------------  ---------------
     1      0.545798  1 H  s                  2      0.545798  2 H  s          

 Vector    2  Occ=0.000000D+00  E= 7.012676D-01  Symmetry=b2
              MO Center=  0.0D+00,  0.0D+00,  0.0D+00, r^2= 7.3D-01
   Bfn.  Coefficient  Atom+Function         Bfn.  Coefficient  Atom+Function  
  ----- ------------  ---------------      ----- ------------  ---------------
     1      1.246966  1 H  s                  2     -1.246966  2 H  s          


 center of mass
 --------------
 x =   0.00000000 y =   0.00000000 z =   0.00000000

 moments of inertia (a.u.)
 ------------------
           0.911378961519           0.000000000000           0.000000000000
           0.000000000000           0.000000000000           0.000000000000
           0.000000000000           0.000000000000           0.911378961519

  Mulliken analysis of the total density
  --------------------------------------

    Atom       Charge   Shell Charges
 -----------   ------   -------------------------------------------------------
    1 H    1     1.00   1.00
    2 H    1     1.00   1.00

       Multipole analysis of the density wrt the origin
       ------------------------------------------------

     L   x y z        total         open         nuclear
     -   - - -        -----         ----         -------
     0   0 0 0     -0.000000      0.000000      2.000000

     1   1 0 0      0.000000      0.000000      0.000000
     1   0 1 0      0.000000      0.000000      0.000000
     1   0 0 1      0.000000      0.000000      0.000000

     2   2 0 0     -1.370162      0.000000      0.000000
     2   1 1 0      0.000000      0.000000      0.000000
     2   1 0 1      0.000000      0.000000      0.000000
     2   0 2 0     -1.076432      0.000000      0.904303
     2   0 1 1      0.000000      0.000000      0.000000
     2   0 0 2     -1.370162      0.000000      0.000000

                              NWChem Gradients Module
                              -----------------------


                              H2 in STO-3G basis set


  wavefunction    =   RHF     

  Using symmetry


                         RHF ENERGY GRADIENTS

    atom               coordinates                        gradient
                 x          y          z           x          y          z
   1 H       0.000000   0.672422   0.000000    0.000000  -0.000617   0.000000
   2 H       0.000000  -0.672422   0.000000    0.000000   0.000617   0.000000

                 ----------------------------------------
                 |  Time  |  1-e(secs)   |  2-e(secs)   |
                 ----------------------------------------
                 |  CPU   |       0.00   |       0.00   |
                 ----------------------------------------
                 |  WALL  |       0.00   |       0.00   |
                 ----------------------------------------

  Step       Energy      Delta E   Gmax     Grms     Xrms     Xmax   Walltime
  ---- ---------------- -------- -------- -------- -------- -------- --------
@    2      -1.11750555 -3.2D-04  0.00062  0.00036  0.00921  0.01596      0.2
                                                                    

                                 NWChem SCF Module
                                 -----------------


                              H2 in STO-3G basis set



  ao basis        = "ao basis"
  functions       =     2
  atoms           =     2
  closed shells   =     1
  open shells     =     0
  charge          =   0.00
  wavefunction    = RHF 
  input vectors   = ./h2_scf_test.movecs
  output vectors  = ./h2_scf_test.movecs
  use symmetry    = T
  symmetry adapt  = T


 Summary of "ao basis" -> "ao basis" (cartesian)
 ------------------------------------------------------------------------------
       Tag                 Description            Shells   Functions and Types
 ---------------- ------------------------------  ------  ---------------------
 H                           STO-3G                  1        1   1s


      Symmetry analysis of basis
      --------------------------

        a1          1
        b1          0
        b2          1
        b3          0


 Forming initial guess at       0.2s


 Loading old vectors from job with title :

H2 in STO-3G basis set


      Symmetry analysis of molecular orbitals - initial
      -------------------------------------------------

  Numbering of irreducible representations: 

     1 a1          2 b1          3 b2          4 b3      

  Orbital symmetries:

     1 a1          2 b2      


 Starting SCF solution at       0.2s



 ----------------------------------------------
         Quadratically convergent ROHF

 Convergence threshold     :          1.000E-04
 Maximum no. of iterations :           30
 Final Fock-matrix accuracy:          1.000E-07
 ----------------------------------------------


              iter       energy          gnorm     gmax       time
             ----- ------------------- --------- --------- --------
                 1       -1.1175058842  0.00D+00  0.00D+00      0.1


       Final RHF  results 
       ------------------ 

         Total SCF energy =     -1.117505884237
      One-electron energy =     -2.540584998497
      Two-electron energy =      0.680061787940
 Nuclear repulsion energy =      0.743017326320

        Time for solution =      0.0s



       Symmetry analysis of molecular orbitals - final
       -----------------------------------------------

  Numbering of irreducible representations: 

     1 a1          2 b1          3 b2          4 b3      

  Orbital symmetries:

     1 a1          2 b2      

             Final eigenvalues
             -----------------

              1      
    1   -0.5902
    2    0.7007

                       ROHF Final Molecular Orbital Analysis
                       -------------------------------------

 Vector    1  Occ=2.000000D+00  E=-5.902307D-01  Symmetry=a1
              MO Center=  0.0D+00,  0.0D+00,  0.0D+00, r^2= 6.6D-01
   Bfn.  Coefficient  Atom+Function         Bfn.  Coefficient  Atom+Function  
  ----- ------------  ---------------      ----- ------------  ---------------
     1      0.545856  1 H  s                  2      0.545856  2 H  s          

 Vector    2  Occ=0.000000D+00  E= 7.006781D-01  Symmetry=b2
              MO Center=  0.0D+00,  0.0D+00,  0.0D+00, r^2= 7.3D-01
   Bfn.  Coefficient  Atom+Function         Bfn.  Coefficient  Atom+Function  
  ----- ------------  ---------------      ----- ------------  ---------------
     1      1.246280  1 H  s                  2     -1.246280  2 H  s          


 center of mass
 --------------
 x =   0.00000000 y =   0.00000000 z =   0.00000000

 moments of inertia (a.u.)
 ------------------
           0.912761365278           0.000000000000           0.000000000000
           0.000000000000           0.000000000000           0.000000000000
           0.000000000000           0.000000000000           0.912761365278

  Mulliken analysis of the total density
  --------------------------------------

    Atom       Charge   Shell Charges
 -----------   ------   -------------------------------------------------------
    1 H    1     1.00   1.00
    2 H    1     1.00   1.00

       Multipole analysis of the density wrt the origin
       ------------------------------------------------

     L   x y z        total         open         nuclear
     -   - - -        -----         ----         -------
     0   0 0 0     -0.000000      0.000000      2.000000

     1   1 0 0      0.000000      0.000000      0.000000
     1   0 1 0      0.000000      0.000000      0.000000
     1   0 0 1      0.000000      0.000000      0.000000

     2   2 0 0     -1.370229      0.000000      0.000000
     2   1 1 0      0.000000      0.000000      0.000000
     2   1 0 1      0.000000      0.000000      0.000000
     2   0 2 0     -1.076143      0.000000      0.905674
     2   0 1 1      0.000000      0.000000      0.000000
     2   0 0 2     -1.370229      0.000000      0.000000

 Line search: 
     step= 1.00 grad=-6.3D-07 hess= 3.0D-07 energy=     -1.117506 mode=accept  
 new step= 1.00                   predicted energy=     -1.117506

          --------
          Step   3
          --------


                         Geometry "geometry" -> "geometry"
                         ---------------------------------

 Output coordinates in a.u. (scale by  1.000000000 to convert to a.u.)

  No.       Tag          Charge          X              Y              Z
 ---- ---------------- ---------- -------------- -------------- --------------
    1 H                    1.0000     0.00000000     0.67293182     0.00000000
    2 H                    1.0000     0.00000000    -0.67293182     0.00000000

      Atomic Mass 
      ----------- 

      H                  1.007825


 Effective nuclear repulsion energy (a.u.)       0.7430173263

            Nuclear Dipole moment (a.u.) 
            ----------------------------
        X                 Y               Z
 ---------------- ---------------- ----------------
     0.0000000000     0.0000000000     0.0000000000

      Symmetry information
      --------------------

 Group name             D2        
 Group number             11
 Group order               4
 No. of unique centers     1

      Symmetry unique atoms

     1

                                 NWChem SCF Module
                                 -----------------


                              H2 in STO-3G basis set



  ao basis        = "ao basis"
  functions       =     2
  atoms           =     2
  closed shells   =     1
  open shells     =     0
  charge          =   0.00
  wavefunction    = RHF 
  input vectors   = ./h2_scf_test.movecs
  output vectors  = ./h2_scf_test.movecs
  use symmetry    = T
  symmetry adapt  = T


 Summary of "ao basis" -> "ao basis" (cartesian)
 ------------------------------------------------------------------------------
       Tag                 Description            Shells   Functions and Types
 ---------------- ------------------------------  ------  ---------------------
 H                           STO-3G                  1        1   1s


      Symmetry analysis of basis
      --------------------------

        a1          1
        b1          0
        b2          1
        b3          0


  The SCF is already converged 

         Total SCF energy =     -1.117505884237

                              NWChem Gradients Module
                              -----------------------


                              H2 in STO-3G basis set


  wavefunction    =   RHF     

  Using symmetry


                         RHF ENERGY GRADIENTS

    atom               coordinates                        gradient
                 x          y          z           x          y          z
   1 H       0.000000   0.672932   0.000000    0.000000  -0.000032   0.000000
   2 H       0.000000  -0.672932   0.000000    0.000000   0.000032   0.000000

                 ----------------------------------------
                 |  Time  |  1-e(secs)   |  2-e(secs)   |
                 ----------------------------------------
                 |  CPU   |       0.00   |       0.00   |
                 ----------------------------------------
                 |  WALL  |       0.00   |       0.00   |
                 ----------------------------------------

  Step       Energy      Delta E   Gmax     Grms     Xrms     Xmax   Walltime
  ---- ---------------- -------- -------- -------- -------- -------- --------
@    3      -1.11750588 -3.3D-07  0.00003  0.00002  0.00029  0.00051      0.2
                                     ok       ok       ok       ok  


      ----------------------
      Optimization converged
      ----------------------


  Step       Energy      Delta E   Gmax     Grms     Xrms     Xmax   Walltime
  ---- ---------------- -------- -------- -------- -------- -------- --------
@    3      -1.11750588 -3.3D-07  0.00003  0.00002  0.00029  0.00051      0.2
                                     ok       ok       ok       ok  



                         Geometry "geometry" -> "geometry"
                         ---------------------------------

 Output coordinates in a.u. (scale by  1.000000000 to convert to a.u.)

  No.       Tag          Charge          X              Y              Z
 ---- ---------------- ---------- -------------- -------------- --------------
    1 H                    1.0000     0.00000000     0.67293182     0.00000000
    2 H                    1.0000     0.00000000    -0.67293182     0.00000000

      Atomic Mass 
      ----------- 

      H                  1.007825


 Effective nuclear repulsion energy (a.u.)       0.7430173263

            Nuclear Dipole moment (a.u.) 
            ----------------------------
        X                 Y               Z
 ---------------- ---------------- ----------------
     0.0000000000     0.0000000000     0.0000000000

      Symmetry information
      --------------------

 Group name             D2        
 Group number             11
 Group order               4
 No. of unique centers     1

      Symmetry unique atoms

     1


 Task  times  cpu:        0.1s     wall:        0.2s


                                NWChem Input Module
                                -------------------


                                 NWChem SCF Module
                                 -----------------


                              H2 in STO-3G basis set



  ao basis        = "ao basis"
  functions       =     2
  atoms           =     2
  closed shells   =     1
  open shells     =     0
  charge          =   0.00
  wavefunction    = RHF 
  input vectors   = ./h2_scf_test.movecs
  output vectors  = ./h2_scf_test.movecs
  use symmetry    = T
  symmetry adapt  = T


 Summary of "ao basis" -> "ao basis" (cartesian)
 ------------------------------------------------------------------------------
       Tag                 Description            Shells   Functions and Types
 ---------------- ------------------------------  ------  ---------------------
 H                           STO-3G                  1        1   1s


      Symmetry analysis of basis
      --------------------------

        a1          1
        b1          0
        b2          1
        b3          0


  The SCF is already converged 

         Total SCF energy =     -1.117505884237


 Task  times  cpu:        0.0s     wall:        0.0s


                                NWChem Input Module
                                -------------------


 tddft_input: filename not found; default name will be used

                                 NWChem DFT Module
                                 -----------------


                              H2 in STO-3G basis set




 Summary of "ao basis" -> "ao basis" (cartesian)
 ------------------------------------------------------------------------------
       Tag                 Description            Shells   Functions and Types
 ---------------- ------------------------------  ------  ---------------------
 H                           STO-3G                  1        1   1s


      Symmetry analysis of basis
      --------------------------

        a1          1
        b1          0
        b2          1
        b3          0

  Caching 1-el integrals 

            General Information
            -------------------
          SCF calculation type: DFT
          Wavefunction type:  closed shell.
          No. of atoms     :     2
          No. of electrons :     2
           Alpha electrons :     1
            Beta electrons :     1
          Charge           :     0
          Spin multiplicity:     1
          Use of symmetry is: off; symmetry adaption is: on 
          Maximum number of iterations:  30
          AO basis - number of functions:     2
                     number of shells:     2
          Convergence on energy requested: 1.00D-06
          Convergence on density requested: 1.00D-05
          Convergence on gradient requested: 5.00D-04

              XC Information
              --------------
                        Slater Exchange Functional  1.000 local    
                      VWN V Correlation Functional  1.000 local    

             Grid Information
             ----------------
          Grid used for XC integration:  medium    
          Radial quadrature: Mura-Knowles        
          Angular quadrature: Lebedev. 
          Tag              B.-S. Rad. Rad. Pts. Rad. Cut. Ang. Pts.
          ---              ---------- --------- --------- ---------
          H                   0.35       45           5.0       434
          Grid pruning is: on 
          Number of quadrature shells:    90
          Spatial weights used:  Erf1

          Convergence Information
          -----------------------
          Convergence aids based upon iterative change in 
          total energy or number of iterations. 
          Levelshifting, if invoked, occurs when the 
          HOMO/LUMO gap drops below (HL_TOL): 1.00D-02
          DIIS, if invoked, will attempt to extrapolate 
          using up to (NFOCK): 10 stored Fock matrices.

                    Damping( 0%)  Levelshifting(0.5)       DIIS
                  --------------- ------------------- ---------------
          dE  on:    start            ASAP                start   
          dE off:    2 iters         30 iters            30 iters 


      Screening Tolerance Information
      -------------------------------
          Density screening/tol_rho: 1.00D-10
          AO Gaussian exp screening on grid/accAOfunc:  14
          CD Gaussian exp screening on grid/accCDfunc:  20
          XC Gaussian exp screening on grid/accXCfunc:  20
          Schwarz screening/accCoul: 1.00D-08


      Superposition of Atomic Density Guess
      -------------------------------------

 Sum of atomic energies:          -0.93316370

      Non-variational initial energy
      ------------------------------

 Total energy =      -0.726093
 1-e energy   =      -2.278714
 2-e energy   =       0.809603
 HOMO         =      -0.513386
 LUMO         =       0.627496


      Symmetry analysis of molecular orbitals - initial
      -------------------------------------------------

  Numbering of irreducible representations: 

     1 a1          2 b1          3 b2          4 b3      

  Orbital symmetries:

     1 a1          2 b2      

   Time after variat. SCF:      0.2
   Time prior to 1st pass:      0.2

 Grid_pts file          = /scratch/owengray/h2_scf_test1//h2_scf_test1.gridpts.00
 Record size in doubles =  12289        No. of grid_pts per rec  =   3070
 Max. records in memory =      2        Max. recs in file   =  50662543


           Memory utilization after 1st SCF pass: 
           Heap Space remaining (MW):      126.37           126366388
          Stack Space remaining (MW):      210.62           210617724

   convergence    iter        energy       DeltaE   RMS-Dens  Diis-err    time
 ---------------- ----- ----------------- --------- --------- ---------  ------
 d= 0,ls=0.0,diis     1     -1.1206842310 -1.86D+00  6.36D-10  5.38D-19     0.2
  Singularity in Pulay matrix. Error and Fock matrices removed. 
 d= 0,ls=0.0,diis     2     -1.1206842310  0.00D+00  3.56D-10  1.69D-19     0.2


         Total DFT energy =       -1.120684231014
      One electron energy =       -2.540584998497
           Coulomb energy =        1.360123575880
    Exchange-Corr. energy =       -0.683240134717
 Nuclear repulsion energy =        0.743017326320

 Numeric. integr. density =        2.000000006956

     Total iterative time =      0.0s



                  Occupations of the irreducible representations
                  ----------------------------------------------

                     irrep           alpha         beta
                     --------     --------     --------
                     a1                1.0          1.0
                     b1                0.0          0.0
                     b2                0.0          0.0
                     b3                0.0          0.0


                       DFT Final Molecular Orbital Analysis
                       ------------------------------------

 Vector    1  Occ=2.000000D+00  E=-3.565624D-01  Symmetry=a1
              MO Center=  0.0D+00, -1.4D-10,  0.0D+00, r^2= 6.6D-01
   Bfn.  Coefficient  Atom+Function         Bfn.  Coefficient  Atom+Function  
  ----- ------------  ---------------      ----- ------------  ---------------
     1      0.545856  1 H  s                  2      0.545856  2 H  s          

 Vector    2  Occ=0.000000D+00  E= 4.276113D-01  Symmetry=b2
              MO Center=  0.0D+00,  1.4D-10,  0.0D+00, r^2= 7.3D-01
   Bfn.  Coefficient  Atom+Function         Bfn.  Coefficient  Atom+Function  
  ----- ------------  ---------------      ----- ------------  ---------------
     1      1.246280  1 H  s                  2     -1.246280  2 H  s          


 center of mass
 --------------
 x =   0.00000000 y =   0.00000000 z =   0.00000000

 moments of inertia (a.u.)
 ------------------
           0.912761365278           0.000000000000           0.000000000000
           0.000000000000           0.000000000000           0.000000000000
           0.000000000000           0.000000000000           0.912761365278

     Multipole analysis of the density
     ---------------------------------

     L   x y z        total         alpha         beta         nuclear
     -   - - -        -----         -----         ----         -------
     0   0 0 0     -0.000000     -1.000000     -1.000000      2.000000

     1   1 0 0      0.000000      0.000000      0.000000      0.000000
     1   0 1 0      0.000000      0.000000      0.000000      0.000000
     1   0 0 1      0.000000      0.000000      0.000000      0.000000

     2   2 0 0     -1.370229     -0.685114     -0.685114      0.000000
     2   1 1 0      0.000000      0.000000      0.000000      0.000000
     2   1 0 1      0.000000      0.000000      0.000000      0.000000
     2   0 2 0     -1.076143     -0.990909     -0.990909      0.905674
     2   0 1 1      0.000000      0.000000      0.000000      0.000000
     2   0 0 2     -1.370229     -0.685114     -0.685114      0.000000

 nwchem basis set
 ics=  1 ib=  0 nat=  1 shz=  1 gc=  0 ie=  3 lcf=  1 fcf=  0 type= 1
 ics=  2 ib=  3 nat=  2 shz=  1 gc=  0 ie=  6 lcf=  2 fcf=  1 type= 1
 texas basis set
 ics=  1 ib=  0 nat=  1 shz=  1 gc=  0 ie=  3 lcf=  1 fcf=  0 type= 1
 ics=  2 ib=  3 nat=  2 shz=  1 gc=  0 ie=  6 lcf=  2 fcf=  1 type= 1
 translation shell-nwchem -> shell-texas
                    1                    1
                    2                    2

 Schwarz integral screening summary 
 ---------------------------------- 

        No. of atom pairs =       3
       No. of shell pairs =       3

 Atomic screening 

   value      no.     value      no.     value      no.     value      no.   
  -------- ------    -------- ------    -------- ------    -------- ------   
  0.00D+00      0    1.00D-13      0    1.00D-12      0    1.00D-11      0
  1.00D-10      0    1.00D-09      0    1.00D-08      0    1.00D-07      0
  1.00D-06      0    1.00D-05      0    1.00D-04      0    1.00D-03      0
  1.00D-02      0    1.00D-01      0    1.00D+00      3    1.00D+01      0


 Shell screening 

   value      no.     value      no.     value      no.     value      no.   
  -------- ------    -------- ------    -------- ------    -------- ------   
  0.00D+00      0    1.00D-13      0    1.00D-12      0    1.00D-11      0
  1.00D-10      0    1.00D-09      0    1.00D-08      0    1.00D-07      0
  1.00D-06      0    1.00D-05      0    1.00D-04      0    1.00D-03      0
  1.00D-02      0    1.00D-01      0    1.00D+00      3    1.00D+01      0



 Setting fock-build task_bf   :      -1
                    maxquartet:   10000
                    maxeri    :  129600
                    maxscr    :       0
                    intacc    : 0.0D+00
                    denscreen : T
                    dentol    : 1.0D-06


 Read molecular orbitals from ./h2_scf_test1.movecs


 Eigenvalues
-------------------------

              1
    1  -0.35656
    2   0.42761
-------------------------


 Occupancies
-------------------------

              1
    1   2.00000
    2   0.00000
-------------------------


 global array: MO eigenvectors[1:2,1:2],  handle: -1000 

            1           2  
       ----------- -----------
   1       0.54586     1.24628
   2       0.54586    -1.24628
 Spin                     1
  orbital                    1 a1  
  orbital                    2 b2  
                                NWChem TDDFT Module
                                -------------------


                              H2 in STO-3G basis set


            General Information
            -------------------
           No. of orbitals :     4
            Alpha orbitals :     2
             Beta orbitals :     2
        Alpha frozen cores :     0
         Beta frozen cores :     0
     Alpha frozen virtuals :     0
      Beta frozen virtuals :     0
         Spin multiplicity :     1
    Number of AO functions :     2
        Use of symmetry is : off
      Symmetry adaption is : on 
         Schwarz screening : 0.10D-07

              XC Information
              --------------
                 Slater Exchange Functional   1.00 local    
               VWN V Correlation Functional   1.00 local    

             TDDFT Information
             -----------------
          Calculation type : Tamm-Dancoff TDDFT
         Wavefunction type : Restricted singlets
          No. of electrons :     2
           Alpha electrons :     1
            Beta electrons :     1
              No. of roots :     1
          Max subspacesize :  4200
            Max iterations :   100
               Target root :     1
           Target symmetry : none
      Symmetry restriction : off
                 Algorithm : Optimal
        Davidson threshold : 0.10D-03

            Memory Information
            ------------------
          Available GA space size is        8424714236 doubles
          Available MA space size is         337008876 doubles
          Length of a trial vector is            1
          Algorithm : Incore multiple tensor contraction
          Estimated peak GA usage is             12645 doubles
          Estimated peak MA usage is               600 doubles
  Memleft= 421227308 doubles
 Ground state symmetry a1  

    1 smallest eigenvalue differences (eV) 
--------------------------------------------------------
  No. Spin  Occ  Vir  Irrep   E(Occ)    E(Vir)   E(Diff)
--------------------------------------------------------
    1    1    1    2 b2       -0.357     0.428    21.338
--------------------------------------------------------
          Number of initial trial vectors generated        1

Vector    1
 Spin  Occ  Vir     X+Y
    1    1    2   1.00000

  Entering Davidson iterations
  Restricted singlet excited states

  Iter   NTrls   NConv    DeltaV     DeltaE      Time   
  ----  ------  ------  ---------  ---------  --------- 

 global array: Trial density[1:2,1:2],  handle: -997 

            1           2  
       ----------- -----------
   1       0.68029     0.68029
   2      -0.68029    -0.68029
             Transform       0.0 CPU seconds       0.0 Wall seconds
  Memleft= 421227297 doubles

 global array: Work sym[1:1,1:2,1:2],  handle: -992 

 -- patch: Work sym[1:1,1:2,1]

            1           2  
       ----------- -----------
   1       1.36058     0.00000

 -- patch: Work sym[1:1,1:2,2]

            1           2  
       ----------- -----------
   1       0.00000    -1.36058
  shmap   1     2
  type       2048     2048
 nshblocks   1   blen  2  maxsh 10
  shglo   1
  shghi   2
  bfglo   1
  bfghi   2
  bfmap   1     2
 rbfmap   1     2
 shbflo   1     2
 shbfhi   1     2
  xcnewfock nder                     0  nfock                     1  ndens                     1
  xcnewfock nder                     0  nfock                     1  ndens                     1
  xcnewfock nder                     0  nfock                     1  ndens                     1
  xcnewfock nder                     0  nfock                     1  ndens                     1
  xcnewfock nder                     0  nfock                     1  ndens                     1
  xcnewfock nder                     0  nfock                     1  ndens                     1
  xcnewfock nder                     0  nfock                     1  ndens                     1
  xcnewfock nder                     0  nfock                     1  ndens                     1
  xcnewfock nder                     0  nfock                     1  ndens                     1
  xcnewfock nder                     0  nfock                     1  ndens                     1
  xcnewfock nder                     0  nfock                     1  ndens                     1
  xcnewfock nder                     0  nfock                     1  ndens                     1
  xcnewfock nder                     0  nfock                     1  ndens                     1
  xcnewfock nder                     0  nfock                     1  ndens                     1
 --------Entered fock_xc-------------
  calc_type =                    2
  nfock                     1  ndens                     1
  nfock_xc                     1
  l3d  T
  triplet  F
  xcnewfock nder                     0  nfock                     1  ndens                     1
  xcnewfock nder                     0  nfock                     1  ndens                     1
  xcnewfock nder                     0  nfock                     1  ndens                     1
  xcnewfock nder                     0  nfock                     1  ndens                     1
  xcnewfock nder                     0  nfock                     1  ndens                     1
  xcnewfock nder                     0  nfock                     1  ndens                     1
  grid_file: opening /scratch/owengray/h2_scf_test1//h2_scf_test1.gridpts.11
  grid_file: grinfo opening /scratch/owengray/h2_scf_test1//h2_scf_test1.grinfo.11                                                                                                                                                                                                          
 1fdg in                    -1
1INFO read from /scratch/owengray/h2_scf_test1//h2_scf_test1.grinfo.11 enuc 0.74301733E+00
  grid_file: enucs   0.74301732631962469       0.74301732631962469     
  readin mxfilerec from /scratch/owengray/h2_scf_test1//h2_scf_test1.grinfo.11                                                                                                                                                                                                          
 2fdg in                    -1
 2INFO read from /scratch/owengray/h2_scf_test1//h2_scf_test1.grinfo.11  mxcrec                    2   nrecfil                    2   flopend  T
  grid_file: rewinding /scratch/owengray/h2_scf_test1//h2_scf_test1.gridpts.11
  in: alloc fd         5864103894131  size in dbl              84226205
  out: alloc fd         5864103894131  size in dbl              84226205
  *** grid_quadv0: calc_type:                    2
  *** grid_quadv0: grid_written: T
  *** grid_quadv0: grad: F
  *** grid_quadv0: kske: F
  *** grid_quadv0: do_scf: F
  *** grid_quadv0: n_per_rec:                 3070
  grid_file: opening /scratch/owengray/h2_scf_test1//h2_scf_test1.gridpts.12
  grid_file: grinfo opening /scratch/owengray/h2_scf_test1//h2_scf_test1.grinfo.12                                                                                                                                                                                                          
 1fdg in                    -1
1INFO read from /scratch/owengray/h2_scf_test1//h2_scf_test1.grinfo.12 enuc 0.74301733E+00
  grid_file: enucs   0.74301732631962469       0.74301732631962469     
  readin mxfilerec from /scratch/owengray/h2_scf_test1//h2_scf_test1.grinfo.12                                                                                                                                                                                                          
 2fdg in                    -1
 2INFO read from /scratch/owengray/h2_scf_test1//h2_scf_test1.grinfo.12  mxcrec                    2   nrecfil                    2   flopend  T
  grid_file: rewinding /scratch/owengray/h2_scf_test1//h2_scf_test1.gridpts.12
  in: alloc fd         5864103894131  size in dbl              84226205
  out: alloc fd         5864103894131  size in dbl              84226205
  *** grid_quadv0: calc_type:                    2
  *** grid_quadv0: grid_written: T
  *** grid_quadv0: grad: F
  *** grid_quadv0: kske: F
  *** grid_quadv0: do_scf: F
  *** grid_quadv0: n_per_rec:                 3070
  grid_file: opening /scratch/owengray/h2_scf_test1//h2_scf_test1.gridpts.13
  grid_file: grinfo opening /scratch/owengray/h2_scf_test1//h2_scf_test1.grinfo.13                                                                                                                                                                                                          
 1fdg in                    -1
  grid_file: opening /scratch/owengray/h2_scf_test1//h2_scf_test1.gridpts.14
  grid_file: grinfo opening /scratch/owengray/h2_scf_test1//h2_scf_test1.grinfo.14                                                                                                                                                                                                          
 1fdg in                    -1
1INFO read from /scratch/owengray/h2_scf_test1//h2_scf_test1.grinfo.14 enuc 0.74301733E+00
  grid_file: enucs   0.74301732631962469       0.74301732631962469     
  readin mxfilerec from /scratch/owengray/h2_scf_test1//h2_scf_test1.grinfo.14                                                                                                                                                                                                          
 2fdg in                    -1
 2INFO read from /scratch/owengray/h2_scf_test1//h2_scf_test1.grinfo.14  mxcrec                    2   nrecfil                    1   flopend  T
  grid_file: rewinding /scratch/owengray/h2_scf_test1//h2_scf_test1.gridpts.14
  in: alloc fd         5864103894083  size in dbl              84226205
  out: alloc fd         5864103894083  size in dbl              84226205
  *** grid_quadv0: calc_type:                    2
  *** grid_quadv0: grid_written: T
  *** grid_quadv0: grad: F
  *** grid_quadv0: kske: F
  *** grid_quadv0: do_scf: F
  *** grid_quadv0: n_per_rec:                 3070
  grid_file: opening /scratch/owengray/h2_scf_test1//h2_scf_test1.gridpts.15
  grid_file: grinfo opening /scratch/owengray/h2_scf_test1//h2_scf_test1.grinfo.15                                                                                                                                                                                                          
 1fdg in                    -1
1INFO read from /scratch/owengray/h2_scf_test1//h2_scf_test1.grinfo.15 enuc 0.74301733E+00
  grid_file: enucs   0.74301732631962469       0.74301732631962469     
  readin mxfilerec from /scratch/owengray/h2_scf_test1//h2_scf_test1.grinfo.15                                                                                                                                                                                                          
 2fdg in                    -1
 2INFO read from /scratch/owengray/h2_scf_test1//h2_scf_test1.grinfo.15  mxcrec                    2   nrecfil                    2   flopend  T
  grid_file: rewinding /scratch/owengray/h2_scf_test1//h2_scf_test1.gridpts.15
  in: alloc fd         5864103894131  size in dbl              84226205
  out: alloc fd         5864103894131  size in dbl              84226205
  *** grid_quadv0: calc_type:                    2
  *** grid_quadv0: grid_written: T
  *** grid_quadv0: grad: F
  *** grid_quadv0: kske: F
  *** grid_quadv0: do_scf: F
  *** grid_quadv0: n_per_rec:                 3070
  grid_file: opening /scratch/owengray/h2_scf_test1//h2_scf_test1.gridpts.16
  grid_file: grinfo opening /scratch/owengray/h2_scf_test1//h2_scf_test1.grinfo.16                                                                                                                                                                                                          
 1fdg in                    -1
1INFO read from /scratch/owengray/h2_scf_test1//h2_scf_test1.grinfo.16 enuc 0.74301733E+00
  grid_file: enucs   0.74301732631962469       0.74301732631962469     
  readin mxfilerec from /scratch/owengray/h2_scf_test1//h2_scf_test1.grinfo.16                                                                                                                                                                                                          
 2fdg in                    -1
 2INFO read from /scratch/owengray/h2_scf_test1//h2_scf_test1.grinfo.16  mxcrec                    2   nrecfil                    2   flopend  T
  grid_file: rewinding /scratch/owengray/h2_scf_test1//h2_scf_test1.gridpts.16
  in: alloc fd         5864103894131  size in dbl              84226205
  out: alloc fd         5864103894131  size in dbl              84226205
  *** grid_quadv0: calc_type:                    2
  *** grid_quadv0: grid_written: T
  *** grid_quadv0: grad: F
  *** grid_quadv0: kske: F
  *** grid_quadv0: do_scf: F
  *** grid_quadv0: n_per_rec:                 3070
  grid_file: opening /scratch/owengray/h2_scf_test1//h2_scf_test1.gridpts.17
  grid_file: grinfo opening /scratch/owengray/h2_scf_test1//h2_scf_test1.grinfo.17                                                                                                                                                                                                          
 1fdg in                    -1
1INFO read from /scratch/owengray/h2_scf_test1//h2_scf_test1.grinfo.17 enuc 0.74301733E+00
  grid_file: enucs   0.74301732631962469       0.74301732631962469     
  readin mxfilerec from /scratch/owengray/h2_scf_test1//h2_scf_test1.grinfo.17                                                                                                                                                                                                          
 2fdg in                    -1
 2INFO read from /scratch/owengray/h2_scf_test1//h2_scf_test1.grinfo.17  mxcrec                    2   nrecfil                    2   flopend  T
  grid_file: rewinding /scratch/owengray/h2_scf_test1//h2_scf_test1.gridpts.17
  in: alloc fd         5864103894131  size in dbl              84226205
  out: alloc fd         5864103894131  size in dbl              84226205
  *** grid_quadv0: calc_type:                    2
  *** grid_quadv0: grid_written: T
  *** grid_quadv0: grad: F
  *** grid_quadv0: kske: F
  *** grid_quadv0: do_scf: F
  *** grid_quadv0: n_per_rec:                 3070
  grid_file: opening /scratch/owengray/h2_scf_test1//h2_scf_test1.gridpts.18
  grid_file: grinfo opening /scratch/owengray/h2_scf_test1//h2_scf_test1.grinfo.18                                                                                                                                                                                                          
 1fdg in                    -1
1INFO read from /scratch/owengray/h2_scf_test1//h2_scf_test1.grinfo.18 enuc 0.74301733E+00
  grid_file: enucs   0.74301732631962469       0.74301732631962469     
  readin mxfilerec from /scratch/owengray/h2_scf_test1//h2_scf_test1.grinfo.18                                                                                                                                                                                                          
 2fdg in                    -1
 2INFO read from /scratch/owengray/h2_scf_test1//h2_scf_test1.grinfo.18  mxcrec                    2   nrecfil                    2   flopend  T
  grid_file: rewinding /scratch/owengray/h2_scf_test1//h2_scf_test1.gridpts.18
  in: alloc fd         5864103894131  size in dbl              84226205
  out: alloc fd         5864103894131  size in dbl              84226205
  *** grid_quadv0: calc_type:                    2
  *** grid_quadv0: grid_written: T
  *** grid_quadv0: grad: F
  *** grid_quadv0: kske: F
  *** grid_quadv0: do_scf: F
  *** grid_quadv0: n_per_rec:                 3070
  grid_file: opening /scratch/owengray/h2_scf_test1//h2_scf_test1.gridpts.06
  grid_file: grinfo opening /scratch/owengray/h2_scf_test1//h2_scf_test1.grinfo.06                                                                                                                                                                                                          
 1fdg in                    -1
1INFO read from /scratch/owengray/h2_scf_test1//h2_scf_test1.grinfo.06 enuc 0.74301733E+00
  grid_file: enucs   0.74301732631962469       0.74301732631962469     
  readin mxfilerec from /scratch/owengray/h2_scf_test1//h2_scf_test1.grinfo.06                                                                                                                                                                                                          
 2fdg in                    -1
 2INFO read from /scratch/owengray/h2_scf_test1//h2_scf_test1.grinfo.06  mxcrec                    2   nrecfil                    2   flopend  T
  grid_file: rewinding /scratch/owengray/h2_scf_test1//h2_scf_test1.gridpts.06
  in: alloc fd         5864103894131  size in dbl              84226205
  out: alloc fd         5864103894131  size in dbl              84226205
  *** grid_quadv0: calc_type:                    2
  *** grid_quadv0: grid_written: T
  *** grid_quadv0: grad: F
  *** grid_quadv0: kske: F
  *** grid_quadv0: do_scf: F
  *** grid_quadv0: n_per_rec:                 3070

 Read molecular orbitals from ./h2_scf_test1.movecs

 gdenscf1                 -987

 global array: bgj_get_scf_dens:density[1:2,1:2],  handle: -987 

            1           2  
       ----------- -----------
   1       0.59592     0.59592
   2       0.59592     0.59592
 g_dens_xc1                 -989

 global array: gdens1[1:2,1:2],  handle: -989 

            1           2  
       ----------- -----------
   1       1.36058     0.00000
   2       0.00000    -1.36058

 global array: gdens+1[1:2,1:2],  handle: -988 

            1           2  
       ----------- -----------
   1       0.59592     0.59592
   2       0.59592     0.59592
  grid_file: opening /scratch/owengray/h2_scf_test1//h2_scf_test1.gridpts.00
  grid_file: grinfo opening /scratch/owengray/h2_scf_test1//h2_scf_test1.grinfo.00                                                                                                                                                                                                          
 1fdg in                    -1
1INFO read from /scratch/owengray/h2_scf_test1//h2_scf_test1.grinfo.00 enuc 0.74301733E+00
  grid_file: enucs   0.74301732631962469       0.74301732631962469     
[...]
 4fd in         5864103894131
 grid_file: read   1027 grid_pts in record     2 of      2.
  grid_file read: nqpts,nctr,n_in_rec,next_value                 1026                    2                 1027                    2
  grid_file: rewinding /scratch/owengray/h2_scf_test1//h2_scf_test1.gridpts.09
 4fd in         5864103894131
 grid_file: read    196 grid_pts in record     1 of      2.
  grid_file read: nqpts,nctr,n_in_rec,next_value                  195                    1                  196                    2
  grid_file: rewinding /scratch/owengray/h2_scf_test1//h2_scf_test1.gridpts.18
 4fd in         5864103894131
 grid_file: read     86 grid_pts in record     1 of      2.
  grid_file read: nqpts,nctr,n_in_rec,next_value                   85                    1                   86                    2
 4fd in         5864103894131
 grid_file: read   1175 grid_pts in record     2 of      2.
  grid_file read: nqpts,nctr,n_in_rec,next_value                 1174                    2                 1175                    2
  grid_file: rewinding /scratch/owengray/h2_scf_test1//h2_scf_test1.gridpts.11
 4fd in         5864103894131
 grid_file: read    217 grid_pts in record     1 of      2.
  grid_file read: nqpts,nctr,n_in_rec,next_value                  216                    1                  217                    2
  grid_file: rewinding /scratch/owengray/h2_scf_test1//h2_scf_test1.gridpts.12
 4fd in         5864103894131
 grid_file: read    181 grid_pts in record     1 of      2.
  grid_file read: nqpts,nctr,n_in_rec,next_value                  180                    1                  181                    2
1INFO read from /scratch/owengray/h2_scf_test1//h2_scf_test1.grinfo.13 enuc 0.74301733E+00
  grid_file: enucs   0.74301732631962469       0.74301732631962469     
  readin mxfilerec from /scratch/owengray/h2_scf_test1//h2_scf_test1.grinfo.13                                                                                                                                                                                                          
 2fdg in                    -1
 2INFO read from /scratch/owengray/h2_scf_test1//h2_scf_test1.grinfo.13  mxcrec                    2   nrecfil                    1   flopend  T
  grid_file: rewinding /scratch/owengray/h2_scf_test1//h2_scf_test1.gridpts.13
  in: alloc fd         5864103894083  size in dbl              84226205
  out: alloc fd         5864103894083  size in dbl              84226205
  *** grid_quadv0: calc_type:                    2
  *** grid_quadv0: grid_written: T
  *** grid_quadv0: grad: F
  *** grid_quadv0: kske: F
  *** grid_quadv0: do_scf: F
  *** grid_quadv0: n_per_rec:                 3070
  grid_file: rewinding /scratch/owengray/h2_scf_test1//h2_scf_test1.gridpts.13
 4fd in         5864103894083
 grid_file: read   1118 grid_pts in record     1 of      1.
  grid_file read: nqpts,nctr,n_in_rec,next_value                 1117                    1                 1118                    2
  grid_file: rewinding /scratch/owengray/h2_scf_test1//h2_scf_test1.gridpts.14
 4fd in         5864103894083
 grid_file: read   1027 grid_pts in record     1 of      1.
  grid_file read: nqpts,nctr,n_in_rec,next_value                 1026                    1                 1027                    2
  grid_file: rewinding /scratch/owengray/h2_scf_test1//h2_scf_test1.gridpts.15
 4fd in         5864103894131
 grid_file: read     81 grid_pts in record     1 of      2.
  grid_file read: nqpts,nctr,n_in_rec,next_value                   80                    1                   81                    2
 4fd in         5864103894131
 grid_file: read    970 grid_pts in record     2 of      2.
  grid_file read: nqpts,nctr,n_in_rec,next_value                  969                    2                  970                    2
  grid_file: rewinding /scratch/owengray/h2_scf_test1//h2_scf_test1.gridpts.16
 4fd in         5864103894131
 grid_file: read    917 grid_pts in record     1 of      2.
  grid_file read: nqpts,nctr,n_in_rec,next_value                  916                    1                  917                    2
  grid_file: rewinding /scratch/owengray/h2_scf_test1//h2_scf_test1.gridpts.17
 4fd in         5864103894131
 grid_file: read    197 grid_pts in record     1 of      2.
  grid_file read: nqpts,nctr,n_in_rec,next_value                  196                    1                  197                    2
  grid_file: rewinding /scratch/owengray/h2_scf_test1//h2_scf_test1.gridpts.10
 4fd in         5864103894083
 grid_file: read    982 grid_pts in record     1 of      1.
  grid_file read: nqpts,nctr,n_in_rec,next_value                  981                    1                  982                    2
  grid_file: rewinding /scratch/owengray/h2_scf_test1//h2_scf_test1.gridpts.06
 4fd in         5864103894131
 grid_file: read     82 grid_pts in record     1 of      2.
  grid_file read: nqpts,nctr,n_in_rec,next_value                   81                    1                   82                    2
 4fd in         5864103894131
 grid_file: read    970 grid_pts in record     2 of      2.
  grid_file read: nqpts,nctr,n_in_rec,next_value                  969                    2                  970                    2
  grid_file: rewinding /scratch/owengray/h2_scf_test1//h2_scf_test1.gridpts.00
 4fd in         5864103894131
 grid_file: read     66 grid_pts in record     1 of      2.
  grid_file read: nqpts,nctr,n_in_rec,next_value                   65                    1                   66                    2
 4fd in         5864103894131
 grid_file: read   1098 grid_pts in record     2 of      2.
  grid_file read: nqpts,nctr,n_in_rec,next_value                 1097                    2                 1098                    2
  grid_file: rewinding /scratch/owengray/h2_scf_test1//h2_scf_test1.gridpts.01
 4fd in         5864103894083
 grid_file: read   1027 grid_pts in record     1 of      1.
  grid_file read: nqpts,nctr,n_in_rec,next_value                 1026                    1                 1027                    2
  grid_file: rewinding /scratch/owengray/h2_scf_test1//h2_scf_test1.gridpts.02
 4fd in         5864103894131
 grid_file: read     66 grid_pts in record     1 of      2.
  grid_file read: nqpts,nctr,n_in_rec,next_value                   65                    1                   66                    2
 4fd in         5864103894131
 grid_file: read   1175 grid_pts in record     2 of      2.
  grid_file read: nqpts,nctr,n_in_rec,next_value                 1174                    2                 1175                    2
  grid_file: rewinding /scratch/owengray/h2_scf_test1//h2_scf_test1.gridpts.03
 4fd in         5864103894083
 grid_file: read   1175 grid_pts in record     1 of      1.
  grid_file read: nqpts,nctr,n_in_rec,next_value                 1174                    1                 1175                    2
  grid_file: rewinding /scratch/owengray/h2_scf_test1//h2_scf_test1.gridpts.04
 4fd in         5864103894083
 grid_file: read   1118 grid_pts in record     1 of      1.
  grid_file read: nqpts,nctr,n_in_rec,next_value                 1117                    1                 1118                    2
 4fd in         5864103894131
 4fd in         5864103894131
 grid_file: read    491 grid_pts in record     2 of      2.
  grid_file read: nqpts,nctr,n_in_rec,next_value                  490                    2                  491                    2
 4fd in         5864103894131
 grid_file: read    872 grid_pts in record     2 of      2.
  grid_file read: nqpts,nctr,n_in_rec,next_value                  871                    2                  872                    2
 4fd in         5864103894131
 grid_file: read    341 grid_pts in record     2 of      2.
  grid_file read: nqpts,nctr,n_in_rec,next_value                  340                    2                  341                    2
 4fd in         5864103894131
 grid_file: read    272 grid_pts in record     2 of      2.
 grid_file: read    441 grid_pts in record     2 of      2.
  grid_file read: nqpts,nctr,n_in_rec,next_value                  440                    2                  441                    2
  grid_file read: nqpts,nctr,n_in_rec,next_value                  271                    2                  272                    2
 4fd in         5864103894131
 grid_file: read     37 grid_pts in record     2 of      2.
  grid_file read: nqpts,nctr,n_in_rec,next_value                   36                    2                   37                    2
 *** xcnewfock: fock matrix after add
 *** xcnewfock: fock matrix after add
 *** xcnewfock: fock matrix after add

     ------------------------------------------
      Total Density - Becke Population Analysis
     ------------------------------------------

    Atom         Charge   
 -----------   -------- 
    1 H    1      0.858


 XC quadr. integrated density :      -0.000000 npts:    20266 nctrs:        2

 XC matrix at end fock_xc:
 g_xc dotproduct   2.1143471759752459E-002
  matrix no.                     1   2.1143471759752459E-002
  ndim                     3  dims                     1                    2                    2
  alo                     1                    1                    1
  ahi                     1                    2                    2

 global array: nfockxc:3dxc[1:1,1:2,1:2],  handle: -990 
nfockxc:3dxc(1,1,1) = -0.102819
nfockxc:3dxc(1,2,1) = -0.000000
nfockxc:3dxc(1,1,2) = -0.000000
nfockxc:3dxc(1,2,2) = 0.102819
 *** xcnewfock: fock matrix after add

 global array: Work product[1:1,1:2,1:2],  handle: -993 
Work product(1,1,1) = 0.161287
Work product(1,2,1) = -0.000000
Work product(1,1,2) = -0.000000
Work product(1,2,2) = -0.161287

 global array: Work product[1:1,1:2,1:2],  handle: -993 

 -- patch: Work product[1:1,1:2,1]

            1           2  
       ----------- -----------
   1       0.16129    -0.00000

 -- patch: Work product[1:1,1:2,2]

            1           2  
       ----------- -----------
   1      -0.00000    -0.16129
              Contract       0.0 CPU seconds       0.0 Wall seconds
  Memleft= 421227297 doubles
             Transform       0.0 CPU seconds       0.0 Wall seconds
  Memleft= 421227297 doubles
 *** xcnewfock: fock matrix after add
 *** xcnewfock: fock matrix after add
 *** xcnewfock: fock matrix after add
 *** xcnewfock: fock matrix after add
 *** xcnewfock: fock matrix after add
 *** xcnewfock: fock matrix after add
 *** xcnewfock: fock matrix after add
 *** xcnewfock: fock matrix after add
 *** xcnewfock: fock matrix after add
 *** xcnewfock: fock matrix after add
 *** xcnewfock: fock matrix after add
 *** xcnewfock: fock matrix after add
 *** xcnewfock: fock matrix after add
 *** xcnewfock: fock matrix after add
 *** xcnewfock: fock matrix after add
 *** xcnewfock: fock matrix after add

 A+B
-------------------------

              1
    1   1.00362
-------------------------


 A+B
-------------------------

              1
    1   1.00362
-------------------------


 A+B
-------------------------

              1
    1   1.00362
-------------------------


 A+B
-------------------------

              1
    1   1.00362
-------------------------


 A+B
-------------------------

              1
    1   1.00362
-------------------------


 A+B
-------------------------

              1
    1   1.00362
-------------------------


 A+B
-------------------------

              1
    1   1.00362
-------------------------


 A+B
-------------------------

              1
    1   1.00362
-------------------------


 A+B
-------------------------

              1
    1   1.00362
-------------------------


 A+B
-------------------------

              1
    1   1.00362
-------------------------


 A+B
-------------------------

              1
    1   1.00362
-------------------------


 A+B
-------------------------

              1
    1   1.00362
-------------------------


 A+B
-------------------------

              1
    1   1.00362
-------------------------


Vector    1
 Spin  Occ  Vir     X+Y       A+B
    1    1    2   1.00000   1.00362
               Epsilon       0.0 CPU seconds       0.0 Wall seconds
  Memleft= 421227297 doubles

 A+B
-------------------------

              1
    1   1.00362
-------------------------

              Subspace       0.0 CPU seconds       0.0 Wall seconds
  Memleft= 421227299 doubles

 Eigenvalues
-------------------------

              1
    1   1.00362
-------------------------


 Eigenvectors
-------------------------

              1
    1   1.00000
-------------------------

                Diagon       0.0 CPU seconds       0.0 Wall seconds
  Memleft= 421227299 doubles
  Norm of residuals
    0.00000000

 global array: residual vectors 1[1:1,1:1],  handle: -995 

            1  
       -----------
   1       0.00000
              Residual       0.0 CPU seconds       0.0 Wall seconds
  Memleft= 421227299 doubles
    1      1       1     0.00E+00   0.10+100        0.0
  ----  ------  ------  ---------  ---------  --------- 
  Convergence criterion met

 A+B
-------------------------

              1
    1   1.00362
-------------------------


 A+B
-------------------------

              1
    1   1.00362
-------------------------


 A+B
-------------------------

              1
    1   1.00362
-------------------------


 A+B
-------------------------

              1
    1   1.00362
-------------------------


 A+B
-------------------------

              1
    1   1.00362
-------------------------


 A+B
-------------------------

              1
    1   1.00362
-------------------------


  Ground state a1         -1.120684231014 a.u.

  ----------------------------------------------------------------------------
  Root   1 singlet b2             1.003617929 a.u.               27.3098 eV 

 global array: Transition density[1:2,1:2],  handle: -992 

            1           2  
       ----------- -----------
   1       0.68029     0.68029
   2      -0.68029    -0.68029
  ----------------------------------------------------------------------------
     Transition Moments    X  0.00000   Y -1.29482   Z  0.00000
     Transition Moments   XX -0.00000  XY  0.00000  XZ  0.00000
     Transition Moments   YY  0.00000  YZ  0.00000  ZZ -0.00000
     Dipole Oscillator Strength                         1.12175

     Occ.    1  a1  ---  Virt.    2  b2     1.00000

              Target root =      1
          Target symmetry = none
      Ground state energy =     -1.120684231014
        Excitation energy =      1.003617929051
     Excited state energy =     -0.117066301963

 fn_civecs: ./h2_scf_test1.civecs_singlet                                                                                                                                                                                                                                  

  CI vectors are stored in ./h2_scf_test1.civecs_singlet   
              Analysis       0.0 CPU seconds       0.0 Wall seconds
  Memleft= 421227299 doubles

 Task  times  cpu:        0.1s     wall:        0.1s


                                NWChem Input Module
                                -------------------


  File vec is ./h2_scf_test1.movecs                                                           

  Limits (a.u.) specified for the density plot:
  ---------------------------------------------

        From        To      # of spacings
X    -3.77945     3.77945        50
Y    -3.77945     3.77945        50
Z    -3.77945     3.77945        50

  Total number of grid points =                132651

  1-st set of MOs      : ./h2_scf_test1.movecs
  Output is written to : root1.cube
  Type of picture      : CHARGE DENSITY
  Format used          : Gaussian9x Cube
  Spin                 : TOTAL   
  The density is computed using all orbitals
  The density is computed on the specified grid
  max element   0.36642610187034413     

  Sum of elements      =                      578.05849
  Integration volume   =                        0.00346
  Integrated Charge    =                        1.99728

 Task  times  cpu:        0.1s     wall:        0.1s


                                NWChem Input Module
                                -------------------


 Summary of allocated global arrays
-----------------------------------
  No active global arrays



                         GA Statistics for process    0
                         ------------------------------

       create   destroy   get      put      acc     scatter   gather  read&inc
calls:  542      542     1599      624      224        3        0       86     
number of processes/call 1.09e+00 1.08e+00 1.43e+00 0.00e+00 0.00e+00
bytes total:             3.14e+04 1.36e+04 5.83e+03 8.00e+00 0.00e+00 6.88e+02
bytes remote:            2.00e+03 6.24e+02 1.56e+03 0.00e+00 0.00e+00 0.00e+00
Max memory consumed for GA by this process: 67440 bytes

MA_summarize_allocated_blocks: starting scan ...
heap block 'gridpts', handle 76, address 0x2aaaca7c3218:
	type of elements:		double precision
	number of elements:		84226205
	address of client space:	0x2aaaca7c3280
	index for client space:		5864103894131
	total number of bytes:		673809752
MA_summarize_allocated_blocks: scan completed: 1 heap block, 0 stack blocks
MA usage statistics:

	allocation statistics:
					      heap	     stack
					      ----	     -----
	current number of blocks	         1	         0
	maximum number of blocks	        24	        49
	current total bytes		 673809752	         0
	maximum total bytes		 674011320	  22509672
	maximum total K-bytes		    674012	     22510
	maximum total M-bytes		       675	        23


                                     CITATION
                                     --------
                Please cite the following reference when publishing
                           results obtained with NWChem:

                 M. Valiev, E.J. Bylaska, N. Govind, K. Kowalski,
              T.P. Straatsma, H.J.J. van Dam, D. Wang, J. Nieplocha,
                        E. Apra, T.L. Windus, W.A. de Jong
                 "NWChem: a comprehensive and scalable open-source
                  solution for large scale molecular simulations"
                      Comput. Phys. Commun. 181, 1477 (2010)
                           doi:10.1016/j.cpc.2010.04.018

                                      AUTHORS
                                      -------
          E. Apra, E. J. Bylaska, W. A. de Jong, N. Govind, K. Kowalski,
       T. P. Straatsma, M. Valiev, H. J. J. van Dam, D. Wang, T. L. Windus,
        J. Hammond, J. Autschbach, K. Bhaskaran-Nair, J. Brabec, K. Lopata,
       S. A. Fischer, S. Krishnamoorthy, W. Ma, M. Klemm, O. Villa, Y. Chen,
    V. Anisimov, F. Aquino, S. Hirata, M. T. Hackler, T. Risthaus, M. Malagoli,
       A. Marenich, A. Otero-de-la-Roza, J. Mullin, P. Nichols, R. Peverati,
     J. Pittner, Y. Zhao, P.-D. Fan, A. Fonari, M. Williamson, R. J. Harrison,
       J. R. Rehr, M. Dupuis, D. Silverstein, D. M. A. Smith, J. Nieplocha,
        V. Tipparaju, M. Krishnan, B. E. Van Kuiken, A. Vazquez-Mayagoitia,
        L. Jensen, M. Swart, Q. Wu, T. Van Voorhis, A. A. Auer, M. Nooijen,
      L. D. Crosby, E. Brown, G. Cisneros, G. I. Fann, H. Fruchtl, J. Garza,
        K. Hirao, R. A. Kendall, J. A. Nichols, K. Tsemekhman, K. Wolinski,
     J. Anchell, D. E. Bernholdt, P. Borowski, T. Clark, D. Clerc, H. Dachsel,
   M. J. O. Deegan, K. Dyall, D. Elwood, E. Glendening, M. Gutowski, A. C. Hess,
         J. Jaffe, B. G. Johnson, J. Ju, R. Kobayashi, R. Kutteh, Z. Lin,
   R. Littlefield, X. Long, B. Meng, T. Nakajima, S. Niu, L. Pollack, M. Rosing,
   K. Glaesemann, G. Sandrone, M. Stave, H. Taylor, G. Thomas, J. H. van Lenthe,
                               A. T. Wong, Z. Zhang.

 Total times  cpu:        0.3s     wall:        0.5s
