 argument  1 = /scratch/owengray/Urea_TDC_10/Urea_TDC_10.nw



============================== echo of input deck ==============================
echo

start Urea_TDC_10
title "Urea TDC calculation number 10 in STO-3G basis set"
scratch_dir /scratch/owengray/Urea_TDC_10/
geometry units au noautoz nocenter
symmetry c1
	N	1.3308	-0.325	-0.093
	C	-0.0155	0.063	0.0071
	N	-1.0241	-0.9132	-0.0464
	O	-0.3102	1.2521	0.1409
	H	1.5932	-1.273	-0.2006
	H	2.04	0.365	-0.0547
	H	-1.9724	-0.6371	0.0242
	H	-0.8142	-1.8744	-0.1532
end
basis
	N library STO-3G
	O library STO-3G
	H library STO-3G
	C library STO-3G
end
charge 0
dft
	xc bhlyp
	iterations 100
	vectors output Urea_TDC_10.movecs
end
task dft optimize
tddft
	cis
	print debug
	notriplet
	civecs
	grad
		root 1
	end
end
task tddft energy
dplot
	root 1
	limitxyz
		-2.9724	3.04	100
		-2.8744	2.2521	100
		-1.2006000000000001	1.1409	100
		gaussian
		output Urea_TDC_10_root1.cube
end
task dplot
dplot
	root 2
	limitxyz
		-2.9724	3.04	100
		-2.8744	2.2521	100
		-1.2006000000000001	1.1409	100
		gaussian
		output Urea_TDC_10_root2.cube
end
task dplot
================================================================================


                                         
                                         


              Northwest Computational Chemistry Package (NWChem) 6.6
              ------------------------------------------------------


                    Environmental Molecular Sciences Laboratory
                       Pacific Northwest National Laboratory
                                Richland, WA 99352

                              Copyright (c) 1994-2015
                       Pacific Northwest National Laboratory
                            Battelle Memorial Institute

             NWChem is an open-source computational chemistry package
                        distributed under the terms of the
                      Educational Community License (ECL) 2.0
             A copy of the license is included with this distribution
                              in the LICENSE.TXT file

                                  ACKNOWLEDGMENT
                                  --------------

            This software and its documentation were developed at the
            EMSL at Pacific Northwest National Laboratory, a multiprogram
            national laboratory, operated for the U.S. Department of Energy
            by Battelle under Contract Number DE-AC05-76RL01830. Support
            for this work was provided by the Department of Energy Office
            of Biological and Environmental Research, Office of Basic
            Energy Sciences, and the Office of Advanced Scientific Computing.


           Job information
           ---------------

    hostname        = g24
    program         = /cm/shared/NWChem/bin/nwchem
    date            = Thu Jul  7 14:30:27 2016

    compiled        = Wed_Jan_27_15:20:39_2016
    source          = /cm/shared/nwchem-6.6
    nwchem branch   = 6.6
    nwchem revision = 27746
    ga revision     = 10594
    input           = /scratch/owengray/Urea_TDC_10/Urea_TDC_10.nw
    prefix          = Urea_TDC_10.
    data base       = ./Urea_TDC_10.db
    status          = startup
    nproc           =       20
    time left       =     -1s



           Memory information
           ------------------

    heap     =  210617852 doubles =   1606.9 Mbytes
    stack    =  210617857 doubles =   1606.9 Mbytes
    global   =  421235712 doubles =   3213.8 Mbytes (distinct from heap & stack)
    total    =  842471421 doubles =   6427.5 Mbytes
    verify   = yes
    hardfail = no 


           Directory information
           ---------------------

  0 permanent = .
  0 scratch   = /scratch/owengray/Urea_TDC_10/




                                NWChem Input Module
                                -------------------


                Urea TDC calculation number 10 in STO-3G basis set
                --------------------------------------------------
 Turning off AUTOSYM since
 SYMMETRY directive was detected!



                             Geometry "geometry" -> ""
                             -------------------------

 Output coordinates in a.u. (scale by  1.000000000 to convert to a.u.)

  No.       Tag          Charge          X              Y              Z
 ---- ---------------- ---------- -------------- -------------- --------------
    1 N                    7.0000     1.33080000    -0.32500000    -0.09300000
    2 C                    6.0000    -0.01550000     0.06300000     0.00710000
    3 N                    7.0000    -1.02410000    -0.91320000    -0.04640000
    4 O                    8.0000    -0.31020000     1.25210000     0.14090000
    5 H                    1.0000     1.59320000    -1.27300000    -0.20060000
    6 H                    1.0000     2.04000000     0.36500000    -0.05470000
    7 H                    1.0000    -1.97240000    -0.63710000     0.02420000
    8 H                    1.0000    -0.81420000    -1.87440000    -0.15320000

      Atomic Mass 
      ----------- 

      N                 14.003070
      C                 12.000000
      O                 15.994910
      H                  1.007825


 Effective nuclear repulsion energy (a.u.)     230.9164397066

            Nuclear Dipole moment (a.u.) 
            ----------------------------
        X                 Y               Z
 ---------------- ---------------- ----------------
     0.4189000000    -1.6921000000    -0.1903000000


            XYZ format geometry
            -------------------
     8
 geometry
 N                     0.70422908    -0.17198261    -0.04921348
 C                    -0.00820225     0.03333817     0.00375716
 N                    -0.54193042    -0.48324466    -0.02455382
 O                    -0.16415078     0.66258283     0.07456107
 H                     0.84308519    -0.67364264    -0.10615296
 H                     1.07952159     0.19314970    -0.02894600
 H                    -1.04374921    -0.33713883     0.01280609
 H                    -0.43085612    -0.99188984    -0.08106995

 ==============================================================================
                                internuclear distances
 ------------------------------------------------------------------------------
       center one      |      center two      | atomic units |       a.u.
 ------------------------------------------------------------------------------
    2 C                |   1 N                |     1.40467  |     1.40467
    3 N                |   1 N                |     2.42770  |     2.42770
    3 N                |   2 C                |     1.40467  |     1.40467
    4 O                |   1 N                |     2.28798  |     2.28798
    4 O                |   2 C                |     1.23236  |     1.23236
    4 O                |   3 N                |     2.28763  |     2.28763
    5 H                |   1 N                |     0.98951  |     0.98951
    5 H                |   2 C                |     2.10142  |     2.10142
    6 H                |   1 N                |     0.99022  |     0.99022
    6 H                |   2 C                |     2.07849  |     2.07849
    7 H                |   2 C                |     2.07843  |     2.07843
    7 H                |   3 N                |     0.99020  |     0.99020
    8 H                |   2 C                |     2.10170  |     2.10170
    8 H                |   3 N                |     0.98963  |     0.98963
 ------------------------------------------------------------------------------
                         number of included internuclear distances:         14
 ==============================================================================



 ==============================================================================
                                 internuclear angles
 ------------------------------------------------------------------------------
        center 1       |       center 2       |       center 3       |  degrees
 ------------------------------------------------------------------------------
    1 N                |   2 C                |   3 N                |   119.57
    1 N                |   2 C                |   4 O                |   120.23
    2 C                |   1 N                |   5 H                |   121.77
    2 C                |   1 N                |   6 H                |   119.42
    1 N                |   4 O                |   3 N                |    64.09
    3 N                |   1 N                |   5 H                |    91.56
    3 N                |   1 N                |   6 H                |   149.63
    4 O                |   1 N                |   5 H                |   149.51
    4 O                |   1 N                |   6 H                |    91.69
    5 H                |   1 N                |   6 H                |   118.81
    1 N                |   2 C                |   3 N                |   119.57
    1 N                |   2 C                |   4 O                |   120.23
    2 C                |   1 N                |   5 H                |   121.77
    2 C                |   1 N                |   6 H                |   119.42
    1 N                |   2 C                |   7 H                |   144.09
    1 N                |   2 C                |   8 H                |    95.98
    3 N                |   2 C                |   4 O                |   120.20
    3 N                |   2 C                |   5 H                |    95.97
    3 N                |   2 C                |   6 H                |   144.09
    2 C                |   3 N                |   7 H                |   119.42
    2 C                |   3 N                |   8 H                |   121.79
    4 O                |   2 C                |   5 H                |   143.83
    4 O                |   2 C                |   6 H                |    95.71
    4 O                |   2 C                |   7 H                |    95.68
    4 O                |   2 C                |   8 H                |   143.79
    5 H                |   2 C                |   6 H                |    48.12
    5 H                |   2 C                |   7 H                |   120.49
    5 H                |   2 C                |   8 H                |    72.38
    6 H                |   2 C                |   7 H                |   168.61
    6 H                |   2 C                |   8 H                |   120.50
    7 H                |   2 C                |   8 H                |    48.11
    3 N                |   2 C                |   1 N                |   119.57
    3 N                |   4 O                |   1 N                |    64.09
    1 N                |   3 N                |   7 H                |   149.63
    1 N                |   3 N                |   8 H                |    91.58
    3 N                |   2 C                |   4 O                |   120.20
    2 C                |   3 N                |   7 H                |   119.42
    2 C                |   3 N                |   8 H                |   121.79
    4 O                |   3 N                |   7 H                |    91.67
    4 O                |   3 N                |   8 H                |   149.54
    7 H                |   3 N                |   8 H                |   118.79
    4 O                |   2 C                |   1 N                |   120.23
    1 N                |   4 O                |   3 N                |    64.09
    4 O                |   2 C                |   3 N                |   120.20
    5 H                |   1 N                |   2 C                |   121.77
    6 H                |   1 N                |   2 C                |   119.42
    7 H                |   3 N                |   2 C                |   119.42
    8 H                |   3 N                |   2 C                |   121.79
 ------------------------------------------------------------------------------
                            number of included internuclear angles:         48
 ==============================================================================



  library name resolved from: environment
  library file name is: </cm/shared/NWChem/data/libraries/>
  
                      Basis "ao basis" -> "" (cartesian)
                      -----
  N (Nitrogen)
  ------------
            Exponent  Coefficients 
       -------------- ---------------------------------------------------------
  1 S  9.91061690E+01  0.154329
  1 S  1.80523120E+01  0.535328
  1 S  4.88566020E+00  0.444635

  2 S  3.78045590E+00 -0.099967
  2 S  8.78496600E-01  0.399513
  2 S  2.85714400E-01  0.700115

  3 P  3.78045590E+00  0.155916
  3 P  8.78496600E-01  0.607684
  3 P  2.85714400E-01  0.391957

  O (Oxygen)
  ----------
            Exponent  Coefficients 
       -------------- ---------------------------------------------------------
  1 S  1.30709320E+02  0.154329
  1 S  2.38088610E+01  0.535328
  1 S  6.44360830E+00  0.444635

  2 S  5.03315130E+00 -0.099967
  2 S  1.16959610E+00  0.399513
  2 S  3.80389000E-01  0.700115

  3 P  5.03315130E+00  0.155916
  3 P  1.16959610E+00  0.607684
  3 P  3.80389000E-01  0.391957

  H (Hydrogen)
  ------------
            Exponent  Coefficients 
       -------------- ---------------------------------------------------------
  1 S  3.42525091E+00  0.154329
  1 S  6.23913730E-01  0.535328
  1 S  1.68855400E-01  0.444635

  C (Carbon)
  ----------
            Exponent  Coefficients 
       -------------- ---------------------------------------------------------
  1 S  7.16168370E+01  0.154329
  1 S  1.30450960E+01  0.535328
  1 S  3.53051220E+00  0.444635

  2 S  2.94124940E+00 -0.099967
  2 S  6.83483100E-01  0.399513
  2 S  2.22289900E-01  0.700115

  3 P  2.94124940E+00  0.155916
  3 P  6.83483100E-01  0.607684
  3 P  2.22289900E-01  0.391957



 Summary of "ao basis" -> "" (cartesian)
 ------------------------------------------------------------------------------
       Tag                 Description            Shells   Functions and Types
 ---------------- ------------------------------  ------  ---------------------
 N                           STO-3G                  3        5   2s1p
 O                           STO-3G                  3        5   2s1p
 H                           STO-3G                  1        1   1s
 C                           STO-3G                  3        5   2s1p




                           NWChem Geometry Optimization
                           ----------------------------




                Urea TDC calculation number 10 in STO-3G basis set


 maximum gradient threshold         (gmax) =   0.000450
 rms gradient threshold             (grms) =   0.000300
 maximum cartesian step threshold   (xmax) =   0.001800
 rms cartesian step threshold       (xrms) =   0.001200
 fixed trust radius                (trust) =   0.300000
 maximum step size to saddle      (sadstp) =   0.100000
 energy precision                  (eprec) =   5.0D-06
 maximum number of steps          (nptopt) =   20
 initial hessian option           (inhess) =    0
 line search option               (linopt) =    1
 hessian update option            (modupd) =    1
 saddle point option              (modsad) =    0
 initial eigen-mode to follow     (moddir) =    0
 initial variable to follow       (vardir) =    0
 follow first negative mode     (firstneg) =    T
 apply conjugacy                    (opcg) =    F
 source of zmatrix                         =           


          -------------------
          Energy Minimization
          -------------------


 Using diagonal initial Hessian 

          --------
          Step   0
          --------


                         Geometry "geometry" -> "geometry"
                         ---------------------------------

 Output coordinates in a.u. (scale by  1.000000000 to convert to a.u.)

  No.       Tag          Charge          X              Y              Z
 ---- ---------------- ---------- -------------- -------------- --------------
    1 N                    7.0000     1.33080000    -0.32500000    -0.09300000
    2 C                    6.0000    -0.01550000     0.06300000     0.00710000
    3 N                    7.0000    -1.02410000    -0.91320000    -0.04640000
    4 O                    8.0000    -0.31020000     1.25210000     0.14090000
    5 H                    1.0000     1.59320000    -1.27300000    -0.20060000
    6 H                    1.0000     2.04000000     0.36500000    -0.05470000
    7 H                    1.0000    -1.97240000    -0.63710000     0.02420000
    8 H                    1.0000    -0.81420000    -1.87440000    -0.15320000

      Atomic Mass 
      ----------- 

      N                 14.003070
      C                 12.000000
      O                 15.994910
      H                  1.007825


 Effective nuclear repulsion energy (a.u.)     230.9164397066

            Nuclear Dipole moment (a.u.) 
            ----------------------------
        X                 Y               Z
 ---------------- ---------------- ----------------
     0.4189000000    -1.6921000000    -0.1903000000


                                 NWChem DFT Module
                                 -----------------


                Urea TDC calculation number 10 in STO-3G basis set




 Summary of "ao basis" -> "ao basis" (cartesian)
 ------------------------------------------------------------------------------
       Tag                 Description            Shells   Functions and Types
 ---------------- ------------------------------  ------  ---------------------
 N                           STO-3G                  3        5   2s1p
 O                           STO-3G                  3        5   2s1p
 H                           STO-3G                  1        1   1s
 C                           STO-3G                  3        5   2s1p


  Caching 1-el integrals 

            General Information
            -------------------
          SCF calculation type: DFT
          Wavefunction type:  closed shell.
          No. of atoms     :     8
          No. of electrons :    32
           Alpha electrons :    16
            Beta electrons :    16
          Charge           :     0
          Spin multiplicity:     1
          Use of symmetry is: off; symmetry adaption is: off
          Maximum number of iterations: 100
          AO basis - number of functions:    24
                     number of shells:    16
          Convergence on energy requested: 1.00D-06
          Convergence on density requested: 1.00D-05
          Convergence on gradient requested: 5.00D-04

              XC Information
              --------------
                        BHLYP Method XC Functional
                     Hartree-Fock (Exact) Exchange  0.500          
                        Slater Exchange Functional  0.500 local    
                    Becke 1988 Exchange Functional  0.500 non-local
              Lee-Yang-Parr Correlation Functional  1.000          

             Grid Information
             ----------------
          Grid used for XC integration:  medium    
          Radial quadrature: Mura-Knowles        
          Angular quadrature: Lebedev. 
          Tag              B.-S. Rad. Rad. Pts. Rad. Cut. Ang. Pts.
          ---              ---------- --------- --------- ---------
          N                   0.65       49           6.0       434
          C                   0.70       49           5.0       434
          O                   0.60       49           6.0       434
          H                   0.35       45           7.0       434
          Grid pruning is: on 
          Number of quadrature shells:   376
          Spatial weights used:  Erf1

          Convergence Information
          -----------------------
          Convergence aids based upon iterative change in 
          total energy or number of iterations. 
          Levelshifting, if invoked, occurs when the 
          HOMO/LUMO gap drops below (HL_TOL): 1.00D-02
          DIIS, if invoked, will attempt to extrapolate 
          using up to (NFOCK): 10 stored Fock matrices.

                    Damping( 0%)  Levelshifting(0.5)       DIIS
                  --------------- ------------------- ---------------
          dE  on:    start            ASAP                start   
          dE off:    2 iters        100 iters           100 iters 


      Screening Tolerance Information
      -------------------------------
          Density screening/tol_rho: 1.00D-10
          AO Gaussian exp screening on grid/accAOfunc:  14
          CD Gaussian exp screening on grid/accCDfunc:  20
          XC Gaussian exp screening on grid/accXCfunc:  20
          Schwarz screening/accCoul: 1.00D-08


      Superposition of Atomic Density Guess
      -------------------------------------

 Sum of atomic energies:        -220.05479070

      Non-variational initial energy
      ------------------------------

 Total energy =    -232.236909
 1-e energy   =    -738.250223
 2-e energy   =     275.096874
 HOMO         =      -0.115619
 LUMO         =       0.885572

   Time after variat. SCF:      0.1
   Time prior to 1st pass:      0.1

 Grid_pts file          = /scratch/owengray/Urea_TDC_10//Urea_TDC_10.gridpts.00
 Record size in doubles =  12289        No. of grid_pts per rec  =   3070
 Max. records in memory =      4        Max. recs in file   =  50662543


           Memory utilization after 1st SCF pass: 
           Heap Space remaining (MW):      126.36           126362276
          Stack Space remaining (MW):      210.62           210617508

   convergence    iter        energy       DeltaE   RMS-Dens  Diis-err    time
 ---------------- ----- ----------------- --------- --------- ---------  ------
 d= 0,ls=0.0,diis     1   -211.5605784842 -4.42D+02  8.48D-02  4.48D-01     0.1
 d= 0,ls=0.0,diis     2   -211.6027203569 -4.21D-02  2.40D-02  3.81D-02     0.2
 d= 0,ls=0.0,diis     3   -211.6059323871 -3.21D-03  1.50D-03  2.76D-04     0.2
 d= 0,ls=0.0,diis     4   -211.6059660907 -3.37D-05  2.79D-04  3.26D-06     0.3
 d= 0,ls=0.0,diis     5   -211.6059664164 -3.26D-07  2.08D-05  1.59D-08     0.3
 d= 0,ls=0.0,diis     6   -211.6059664181 -1.74D-09  1.16D-06  6.23D-11     0.4


         Total DFT energy =     -211.605966418144
      One electron energy =     -728.270503470781
           Coulomb energy =      318.310102252222
    Exchange-Corr. energy =      -32.562004906198
 Nuclear repulsion energy =      230.916439706613

 Numeric. integr. density =       32.000023239708

     Total iterative time =      0.3s



                       DFT Final Molecular Orbital Analysis
                       ------------------------------------

 Vector    6  Occ=2.000000D+00  E=-1.594112D+00
              MO Center=  3.7D-02, -1.5D-01, -1.7D-02, r^2= 6.4D-01
   Bfn.  Coefficient  Atom+Function         Bfn.  Coefficient  Atom+Function  
  ----- ------------  ---------------      ----- ------------  ---------------
     9      0.595666  2 C  py                19     -0.278695  4 O  py         
    17      0.237875  4 O  s                 13     -0.231141  3 N  px         
     4      0.224726  1 N  py                16     -0.177635  4 O  s          

 Vector    7  Occ=2.000000D+00  E=-1.523968D+00
              MO Center= -2.6D-02,  1.1D-01,  1.2D-02, r^2= 7.3D-01
   Bfn.  Coefficient  Atom+Function         Bfn.  Coefficient  Atom+Function  
  ----- ------------  ---------------      ----- ------------  ---------------
     8      0.676049  2 C  px                14     -0.204101  3 N  py         
     4      0.182190  1 N  py                 1     -0.180129  1 N  s          
    11      0.180289  3 N  s                  9      0.169724  2 C  py         

 Vector    8  Occ=2.000000D+00  E=-1.121404D+00
              MO Center= -5.0D-03,  2.0D-02,  2.3D-03, r^2= 8.5D-01
   Bfn.  Coefficient  Atom+Function         Bfn.  Coefficient  Atom+Function  
  ----- ------------  ---------------      ----- ------------  ---------------
    10      0.523454  2 C  pz                 5      0.256603  1 N  pz         
    15      0.256675  3 N  pz                20      0.249065  4 O  pz         

 Vector    9  Occ=2.000000D+00  E=-1.058277D+00
              MO Center=  1.4D-01, -5.9D-01, -6.6D-02, r^2= 1.2D+00
   Bfn.  Coefficient  Atom+Function         Bfn.  Coefficient  Atom+Function  
  ----- ------------  ---------------      ----- ------------  ---------------
    14      0.430655  3 N  py                 2      0.415553  1 N  s          
    12     -0.415953  3 N  s                  4     -0.333765  1 N  py         
     3      0.288184  1 N  px                 8     -0.246365  2 C  px         
    21      0.156748  5 H  s                 24     -0.156806  8 H  s          

 Vector   10  Occ=2.000000D+00  E=-1.020001D+00
              MO Center=  8.3D-02, -3.3D-01, -3.8D-02, r^2= 1.5D+00
   Bfn.  Coefficient  Atom+Function         Bfn.  Coefficient  Atom+Function  
  ----- ------------  ---------------      ----- ------------  ---------------
     3      0.493152  1 N  px                13     -0.482367  3 N  px         
     2      0.289165  1 N  s                 12      0.288800  3 N  s          
     6      0.191072  2 C  s                 17     -0.185736  4 O  s          

 Vector   11  Occ=2.000000D+00  E=-8.500808D-01
              MO Center=  7.3D-02, -2.9D-01, -3.3D-02, r^2= 9.9D-01
   Bfn.  Coefficient  Atom+Function         Bfn.  Coefficient  Atom+Function  
  ----- ------------  ---------------      ----- ------------  ---------------
     9     -0.675967  2 C  py                 4      0.660612  1 N  py         
    14      0.652314  3 N  py                17     -0.254861  4 O  s          
    19      0.186179  4 O  py                13     -0.178190  3 N  px         
     8      0.167260  2 C  px                21     -0.165416  5 H  s          
    24     -0.165229  8 H  s                 16      0.153018  4 O  s          

 Vector   12  Occ=2.000000D+00  E=-7.817958D-01
              MO Center=  7.8D-02, -3.2D-01, -3.6D-02, r^2= 1.1D+00
   Bfn.  Coefficient  Atom+Function         Bfn.  Coefficient  Atom+Function  
  ----- ------------  ---------------      ----- ------------  ---------------
    13      0.711609  3 N  px                 4      0.552080  1 N  py         
     8     -0.528829  2 C  px                 3      0.513862  1 N  px         
    14     -0.246531  3 N  py                22      0.188077  6 H  s          
    23     -0.188225  7 H  s                 21     -0.169686  5 H  s          
    24      0.169842  8 H  s          

 Vector   13  Occ=2.000000D+00  E=-5.207593D-01
              MO Center=  8.2D-02, -3.3D-01, -3.7D-02, r^2= 1.0D+00
   Bfn.  Coefficient  Atom+Function         Bfn.  Coefficient  Atom+Function  
  ----- ------------  ---------------      ----- ------------  ---------------
     5      0.782143  1 N  pz                15     -0.781690  3 N  pz         

 Vector   14  Occ=2.000000D+00  E=-4.085211D-01
              MO Center= -4.9D-02,  2.0D-01,  2.2D-02, r^2= 9.6D-01
   Bfn.  Coefficient  Atom+Function         Bfn.  Coefficient  Atom+Function  
  ----- ------------  ---------------      ----- ------------  ---------------
    20      0.746319  4 O  pz                 5     -0.575100  1 N  pz         
    15     -0.575818  3 N  pz                10      0.274269  2 C  pz         

 Vector   15  Occ=2.000000D+00  E=-3.833847D-01
              MO Center= -2.3D-01,  9.4D-01,  1.1D-01, r^2= 3.7D-01
   Bfn.  Coefficient  Atom+Function         Bfn.  Coefficient  Atom+Function  
  ----- ------------  ---------------      ----- ------------  ---------------
    19      0.854530  4 O  py                17      0.530615  4 O  s          
     7      0.478170  2 C  s                  9     -0.345991  2 C  py         
     2     -0.315483  1 N  s                 12     -0.315487  3 N  s          
    18     -0.211927  4 O  px                 6      0.174038  2 C  s          

 Vector   16  Occ=2.000000D+00  E=-1.414748D-01
              MO Center= -1.2D-01,  4.9D-01,  5.5D-02, r^2= 6.2D-01
   Bfn.  Coefficient  Atom+Function         Bfn.  Coefficient  Atom+Function  
  ----- ------------  ---------------      ----- ------------  ---------------
    18      1.074412  4 O  px                 2     -0.585041  1 N  s          
    12      0.584947  3 N  s                  3      0.399645  1 N  px         
    14      0.382402  3 N  py                19      0.268890  4 O  py         
    13      0.250380  3 N  px                 4     -0.219926  1 N  py         
    21      0.165544  5 H  s                 24     -0.165933  8 H  s          

 Vector   17  Occ=0.000000D+00  E= 8.564831D-01
              MO Center= -3.2D-02,  1.3D-01,  1.5D-02, r^2= 7.9D-01
   Bfn.  Coefficient  Atom+Function         Bfn.  Coefficient  Atom+Function  
  ----- ------------  ---------------      ----- ------------  ---------------
    10      1.678056  2 C  pz                20     -0.996872  4 O  pz         
     5     -0.743444  1 N  pz                15     -0.743309  3 N  pz         
     9     -0.170157  2 C  py         

 Vector   18  Occ=0.000000D+00  E= 9.657285D-01
              MO Center=  2.1D-01, -8.7D-01, -9.7D-02, r^2= 1.5D+00
   Bfn.  Coefficient  Atom+Function         Bfn.  Coefficient  Atom+Function  
  ----- ------------  ---------------      ----- ------------  ---------------
    21      1.826902  5 H  s                 24      1.826532  8 H  s          
     2     -1.607349  1 N  s                 12     -1.606753  3 N  s          
    14      1.053203  3 N  py                 4      0.853759  1 N  py         
     3     -0.634991  1 N  px                17     -0.491741  4 O  s          
    22      0.406797  6 H  s                 23      0.406782  7 H  s          

 Vector   19  Occ=0.000000D+00  E= 1.203931D+00
              MO Center=  1.5D-03, -2.0D-03, -2.4D-04, r^2= 2.0D+00
   Bfn.  Coefficient  Atom+Function         Bfn.  Coefficient  Atom+Function  
  ----- ------------  ---------------      ----- ------------  ---------------
    22     -2.041616  6 H  s                 23     -2.039748  7 H  s          
     2      1.884966  1 N  s                 12      1.883200  3 N  s          
     4      1.038244  1 N  py                 7     -0.894087  2 C  s          
    13     -0.806264  3 N  px                14      0.745681  3 N  py         
    21      0.512269  5 H  s                 24      0.513135  8 H  s          

 Vector   20  Occ=0.000000D+00  E= 1.310381D+00
              MO Center=  2.5D-02, -1.0D-01, -1.2D-02, r^2= 2.2D+00
   Bfn.  Coefficient  Atom+Function         Bfn.  Coefficient  Atom+Function  
  ----- ------------  ---------------      ----- ------------  ---------------
    22      2.128994  6 H  s                 23     -2.130740  7 H  s          
     2     -1.806732  1 N  s                 12      1.810552  3 N  s          
    13     -1.194802  3 N  px                 3     -1.055931  1 N  px         
     4     -0.561007  1 N  py                21      0.501376  5 H  s          
    24     -0.500821  8 H  s          

 Vector   21  Occ=0.000000D+00  E= 1.370807D+00
              MO Center= -3.5D-02,  1.4D-01,  1.6D-02, r^2= 1.2D+00
   Bfn.  Coefficient  Atom+Function         Bfn.  Coefficient  Atom+Function  
  ----- ------------  ---------------      ----- ------------  ---------------
     7      6.842950  2 C  s                 17     -2.997999  4 O  s          
     2     -2.058346  1 N  s                 12     -2.056373  3 N  s          
     3      0.947443  1 N  px                19      0.801205  4 O  py         
    13     -0.722593  3 N  px                14     -0.664878  3 N  py         
     9      0.453420  2 C  py                23     -0.397783  7 H  s          

 Vector   22  Occ=0.000000D+00  E= 1.623104D+00
              MO Center=  1.8D-01, -7.3D-01, -8.3D-02, r^2= 1.1D+00
   Bfn.  Coefficient  Atom+Function         Bfn.  Coefficient  Atom+Function  
  ----- ------------  ---------------      ----- ------------  ---------------
    21     -2.369318  5 H  s                 24      2.369088  8 H  s          
     2      2.267801  1 N  s                 12     -2.269514  3 N  s          
     4     -1.204954  1 N  py                14      0.934211  3 N  py         
    13     -0.806297  3 N  px                 8     -0.769126  2 C  px         
    22      0.468679  6 H  s                 23     -0.468264  7 H  s          

 Vector   23  Occ=0.000000D+00  E= 2.868054D+00
              MO Center=  1.0D-02, -4.4D-02, -4.9D-03, r^2= 7.3D-01
   Bfn.  Coefficient  Atom+Function         Bfn.  Coefficient  Atom+Function  
  ----- ------------  ---------------      ----- ------------  ---------------
     8      4.158690  2 C  px                12      3.433993  3 N  s          
     2     -3.411685  1 N  s                 14      1.834478  3 N  py         
     3      1.407824  1 N  px                 4     -1.326388  1 N  py         
     9      1.055306  2 C  py                18     -0.787543  4 O  px         
    21     -0.724070  5 H  s                 24      0.719034  8 H  s          

 Vector   24  Occ=0.000000D+00  E= 2.930507D+00
              MO Center=  3.2D-02, -1.3D-01, -1.4D-02, r^2= 8.8D-01
   Bfn.  Coefficient  Atom+Function         Bfn.  Coefficient  Atom+Function  
  ----- ------------  ---------------      ----- ------------  ---------------
     9      4.233597  2 C  py                17     -3.543886  4 O  s          
     2      2.989060  1 N  s                 12      2.961259  3 N  s          
     7     -2.041108  2 C  s                 13      1.629288  3 N  px         
     3     -1.477002  1 N  px                19      1.291726  4 O  py         
     8     -1.065651  2 C  px                 4     -0.707404  1 N  py         


 center of mass
 --------------
 x =   0.00000575 y =  -0.00002719 z =  -0.00000753

 moments of inertia (a.u.)
 ------------------
          44.535073938190          -2.326093445638           2.125045346447
          -2.326093445638          52.906416954086          -4.354898358870
           2.125045346447          -4.354898358870          96.367042314298

     Multipole analysis of the density
     ---------------------------------

     L   x y z        total         alpha         beta         nuclear
     -   - - -        -----         -----         ----         -------
     0   0 0 0     -0.000000    -16.000000    -16.000000     32.000000

     1   1 0 0      0.219589     -0.099655     -0.099655      0.418900
     1   0 1 0     -0.886123      0.402989      0.402989     -1.692100
     1   0 0 1     -0.099294      0.045503      0.045503     -0.190300

     2   2 0 0    -14.432320    -23.097695    -23.097695     31.763070
     2   1 1 0      0.315342     -0.794842     -0.794842      1.905025
     2   1 0 1      0.023394      0.630808      0.630808     -1.238221
     2   0 2 0    -15.624122    -20.219956    -20.219956     24.815790
     2   0 1 1     -0.113835     -1.271603     -1.271603      2.429372
     2   0 0 2    -14.656435     -7.479231     -7.479231      0.302027


            General Information
            -------------------
          SCF calculation type: DFT
          Wavefunction type:  closed shell.
          No. of atoms     :     8
          No. of electrons :    32
           Alpha electrons :    16
            Beta electrons :    16
          Charge           :     0
          Spin multiplicity:     1
          Use of symmetry is: off; symmetry adaption is: off
          Maximum number of iterations: 100
          AO basis - number of functions:    24
                     number of shells:    16
          Convergence on energy requested: 1.00D-06
          Convergence on density requested: 1.00D-05
          Convergence on gradient requested: 5.00D-04

              XC Information
              --------------
                        BHLYP Method XC Functional
                     Hartree-Fock (Exact) Exchange  0.500          
                        Slater Exchange Functional  0.500 local    
                    Becke 1988 Exchange Functional  0.500 non-local
              Lee-Yang-Parr Correlation Functional  1.000          

             Grid Information
             ----------------
          Grid used for XC integration:  medium    
          Radial quadrature: Mura-Knowles        
          Angular quadrature: Lebedev. 
          Tag              B.-S. Rad. Rad. Pts. Rad. Cut. Ang. Pts.
          ---              ---------- --------- --------- ---------
          N                   0.65       49           6.0       434
          C                   0.70       49           5.0       434
          O                   0.60       49           6.0       434
          H                   0.35       45           7.0       434
          Grid pruning is: on 
          Number of quadrature shells:   376
          Spatial weights used:  Erf1

          Convergence Information
          -----------------------
          Convergence aids based upon iterative change in 
          total energy or number of iterations. 
          Levelshifting, if invoked, occurs when the 
          HOMO/LUMO gap drops below (HL_TOL): 1.00D-02
          DIIS, if invoked, will attempt to extrapolate 
          using up to (NFOCK): 10 stored Fock matrices.

                    Damping( 0%)  Levelshifting(0.5)       DIIS
                  --------------- ------------------- ---------------
          dE  on:    start            ASAP                start   
          dE off:    2 iters        100 iters           100 iters 


      Screening Tolerance Information
      -------------------------------
          Density screening/tol_rho: 1.00D-10
          AO Gaussian exp screening on grid/accAOfunc:  14
          CD Gaussian exp screening on grid/accCDfunc:  20
          XC Gaussian exp screening on grid/accXCfunc:  20
          Schwarz screening/accCoul: 1.00D-08



                            NWChem DFT Gradient Module
                            --------------------------


                Urea TDC calculation number 10 in STO-3G basis set



  charge          =   0.00
  wavefunction    = closed shell



                         DFT ENERGY GRADIENTS

    atom               coordinates                        gradient
                 x          y          z           x          y          z
   1 N       1.330800  -0.325000  -0.093000   -3.064375   1.231847   0.264992
   2 C      -0.015500   0.063000   0.007100   -0.812406   3.273855   0.368235
   3 N      -1.024100  -0.913200  -0.046400    2.131601   2.532381   0.160472
   4 O      -0.310200   1.252100   0.140900    2.510100 -10.132189  -1.140135
   5 H       1.593200  -1.273000  -0.200600   -0.950813   2.999964   0.346051
   6 H       2.040000   0.365000  -0.054700   -2.323657  -2.174342  -0.116571
   7 H      -1.972400  -0.637100   0.024200    3.067118  -0.828249  -0.221806
   8 H      -0.814200  -1.874400  -0.153200   -0.557568   3.096732   0.338762

                 ----------------------------------------
                 |  Time  |  1-e(secs)   |  2-e(secs)   |
                 ----------------------------------------
                 |  CPU   |       0.00   |       0.03   |
                 ----------------------------------------
                 |  WALL  |       0.00   |       0.03   |
                 ----------------------------------------

@ Step       Energy      Delta E   Gmax     Grms     Xrms     Xmax   Walltime
@ ---- ---------------- -------- -------- -------- -------- -------- --------
@    0    -211.60596642  0.0D+00 10.13219  2.76931  0.00000  0.00000      0.6
                                                                    

 Restricting large step in mode    4 eval= 1.8D-01 step= 3.0D-01 new= 3.0D-01
 Restricting large step in mode    5 eval= 1.8D-01 step=-4.0D-01 new=-3.0D-01
 Restricting large step in mode    6 eval= 3.7D-01 step= 1.4D+00 new= 3.0D-01
 Restricting large step in mode    7 eval= 4.8D-01 step= 2.4D+00 new= 3.0D-01
 Restricting large step in mode   11 eval= 8.5D-01 step= 1.0D+00 new= 3.0D-01
 Restricting large step in mode   12 eval= 1.7D+00 step=-4.9D+00 new=-3.0D-01
 Restricting large step in mode   16 eval= 3.5D+00 step= 2.4D+00 new= 3.0D-01
 Restricting large step in mode   17 eval= 4.4D+00 step=-1.5D+00 new=-3.0D-01
 Restricting overall step due to large component. alpha=  0.82

                                 NWChem DFT Module
                                 -----------------


                Urea TDC calculation number 10 in STO-3G basis set




 Summary of "ao basis" -> "ao basis" (cartesian)
 ------------------------------------------------------------------------------
       Tag                 Description            Shells   Functions and Types
 ---------------- ------------------------------  ------  ---------------------
 N                           STO-3G                  3        5   2s1p
 O                           STO-3G                  3        5   2s1p
 H                           STO-3G                  1        1   1s
 C                           STO-3G                  3        5   2s1p


  Caching 1-el integrals 

            General Information
            -------------------
          SCF calculation type: DFT
          Wavefunction type:  closed shell.
          No. of atoms     :     8
          No. of electrons :    32
           Alpha electrons :    16
            Beta electrons :    16
          Charge           :     0
          Spin multiplicity:     1
          Use of symmetry is: off; symmetry adaption is: off
          Maximum number of iterations: 100
          AO basis - number of functions:    24
                     number of shells:    16
          Convergence on energy requested: 1.00D-06
          Convergence on density requested: 1.00D-05
          Convergence on gradient requested: 5.00D-04

              XC Information
              --------------
                        BHLYP Method XC Functional
                     Hartree-Fock (Exact) Exchange  0.500          
                        Slater Exchange Functional  0.500 local    
                    Becke 1988 Exchange Functional  0.500 non-local
              Lee-Yang-Parr Correlation Functional  1.000          

             Grid Information
             ----------------
          Grid used for XC integration:  medium    
          Radial quadrature: Mura-Knowles        
          Angular quadrature: Lebedev. 
          Tag              B.-S. Rad. Rad. Pts. Rad. Cut. Ang. Pts.
          ---              ---------- --------- --------- ---------
          N                   0.65       49           6.0       434
          C                   0.70       49           5.0       434
          O                   0.60       49           6.0       434
          H                   0.35       45           7.0       434
          Grid pruning is: on 
          Number of quadrature shells:   376
          Spatial weights used:  Erf1

          Convergence Information
          -----------------------
          Convergence aids based upon iterative change in 
          total energy or number of iterations. 
          Levelshifting, if invoked, occurs when the 
          HOMO/LUMO gap drops below (HL_TOL): 1.00D-02
          DIIS, if invoked, will attempt to extrapolate 
          using up to (NFOCK): 10 stored Fock matrices.

                    Damping( 0%)  Levelshifting(0.5)       DIIS
                  --------------- ------------------- ---------------
          dE  on:    start            ASAP                start   
          dE off:    2 iters        100 iters           100 iters 


      Screening Tolerance Information
      -------------------------------
          Density screening/tol_rho: 1.00D-10
          AO Gaussian exp screening on grid/accAOfunc:  14
          CD Gaussian exp screening on grid/accCDfunc:  20
          XC Gaussian exp screening on grid/accXCfunc:  20
          Schwarz screening/accCoul: 1.00D-08


 Loading old vectors from job with title :

Urea TDC calculation number 10 in STO-3G basis set

   Time after variat. SCF:      0.5
   Time prior to 1st pass:      0.5

 Grid_pts file          = /scratch/owengray/Urea_TDC_10//Urea_TDC_10.gridpts.00
 Record size in doubles =  12289        No. of grid_pts per rec  =   3070
 Max. records in memory =      4        Max. recs in file   =  50662543


           Memory utilization after 1st SCF pass: 
           Heap Space remaining (MW):      126.36           126362276
          Stack Space remaining (MW):      210.62           210617508

   convergence    iter        energy       DeltaE   RMS-Dens  Diis-err    time
 ---------------- ----- ----------------- --------- --------- ---------  ------
 d= 0,ls=0.0,diis     1   -215.6236371007 -4.21D+02  1.38D-01  2.63D+00     0.6
 d= 0,ls=0.0,diis     2   -215.8508866760 -2.27D-01  1.84D-02  3.37D-02     0.6
 d= 0,ls=0.0,diis     3   -215.8546118564 -3.73D-03  4.82D-03  2.61D-03     0.7
 d= 0,ls=0.0,diis     4   -215.8549523663 -3.41D-04  1.12D-03  1.80D-04     0.7
 d= 0,ls=0.0,diis     5   -215.8549725296 -2.02D-05  1.49D-04  1.49D-06     0.8
 d= 0,ls=0.0,diis     6   -215.8549728527 -3.23D-07  2.16D-05  3.49D-08     0.8
 d= 0,ls=0.0,diis     7   -215.8549728575 -4.75D-09  1.05D-06  1.15D-10     0.9


         Total DFT energy =     -215.854972857479
      One electron energy =     -689.503074553732
           Coulomb energy =      300.266672428451
    Exchange-Corr. energy =      -31.834129951062
 Nuclear repulsion energy =      205.215559218865

 Numeric. integr. density =       32.000000802734

     Total iterative time =      0.4s



                       DFT Final Molecular Orbital Analysis
                       ------------------------------------

 Vector    5  Occ=2.000000D+00  E=-1.714086D+00
              MO Center=  7.5D-02, -2.8D-01, -3.9D-02, r^2= 6.7D-01
   Bfn.  Coefficient  Atom+Function         Bfn.  Coefficient  Atom+Function  
  ----- ------------  ---------------      ----- ------------  ---------------
     2      0.573304  1 N  s                 12      0.563804  3 N  s          
     6     -0.311261  2 C  s                  3     -0.285378  1 N  px         
     7     -0.285779  2 C  s                 13      0.281685  3 N  px         
    17      0.273602  4 O  s                  1     -0.157311  1 N  s          
    11     -0.155014  3 N  s                 19     -0.155573  4 O  py         

 Vector    6  Occ=2.000000D+00  E=-1.488202D+00
              MO Center=  4.1D-02, -5.6D-02,  5.0D-02, r^2= 7.9D-01
   Bfn.  Coefficient  Atom+Function         Bfn.  Coefficient  Atom+Function  
  ----- ------------  ---------------      ----- ------------  ---------------
     9      0.429959  2 C  py                 4      0.342883  1 N  py         
    17      0.261307  4 O  s                 14      0.244796  3 N  py         
    13     -0.239700  3 N  px                19     -0.189572  4 O  py         

 Vector    7  Occ=2.000000D+00  E=-1.458359D+00
              MO Center=  1.4D-02, -1.4D-01,  2.5D-02, r^2= 7.8D-01
   Bfn.  Coefficient  Atom+Function         Bfn.  Coefficient  Atom+Function  
  ----- ------------  ---------------      ----- ------------  ---------------
     8      0.610260  2 C  px                 2      0.270065  1 N  s          
    12     -0.261214  3 N  s                  1     -0.206017  1 N  s          
    11      0.199720  3 N  s                  3     -0.188417  1 N  px         
    14     -0.152094  3 N  py         

 Vector    8  Occ=2.000000D+00  E=-1.014324D+00
              MO Center=  9.2D-02, -5.3D-01, -1.8D-02, r^2= 1.1D+00
   Bfn.  Coefficient  Atom+Function         Bfn.  Coefficient  Atom+Function  
  ----- ------------  ---------------      ----- ------------  ---------------
     4      0.549159  1 N  py                14     -0.522251  3 N  py         
    13      0.336957  3 N  px                12      0.201830  3 N  s          
     2     -0.197411  1 N  s                 24      0.182696  8 H  s          
    21     -0.180224  5 H  s                 10      0.159792  2 C  pz         

 Vector    9  Occ=2.000000D+00  E=-9.851036D-01
              MO Center=  9.6D-02, -2.2D-01,  4.8D-02, r^2= 9.8D-01
   Bfn.  Coefficient  Atom+Function         Bfn.  Coefficient  Atom+Function  
  ----- ------------  ---------------      ----- ------------  ---------------
    10      0.461073  2 C  pz                 4     -0.324723  1 N  py         
    15      0.322237  3 N  pz                 5      0.310256  1 N  pz         

 Vector   10  Occ=2.000000D+00  E=-8.894194D-01
              MO Center=  7.4D-02, -1.6D-01, -5.4D-03, r^2= 1.6D+00
   Bfn.  Coefficient  Atom+Function         Bfn.  Coefficient  Atom+Function  
  ----- ------------  ---------------      ----- ------------  ---------------
    13      0.433595  3 N  px                 3     -0.372860  1 N  px         
    17      0.307111  4 O  s                  2     -0.304234  1 N  s          
    12     -0.282224  3 N  s                  4     -0.242586  1 N  py         
    22     -0.193240  6 H  s                 23     -0.188202  7 H  s          
    10     -0.170512  2 C  pz         

 Vector   11  Occ=2.000000D+00  E=-8.220765D-01
              MO Center=  4.6D-02, -3.0D-01, -8.0D-02, r^2= 1.5D+00
   Bfn.  Coefficient  Atom+Function         Bfn.  Coefficient  Atom+Function  
  ----- ------------  ---------------      ----- ------------  ---------------
    13      0.546246  3 N  px                 8     -0.521357  2 C  px         
     3      0.507375  1 N  px                12     -0.244707  3 N  s          
     2      0.228553  1 N  s                 23     -0.209358  7 H  s          
    22      0.199095  6 H  s                  4      0.182095  1 N  py         
     5     -0.160586  1 N  pz         

 Vector   12  Occ=2.000000D+00  E=-6.884471D-01
              MO Center=  6.9D-02, -3.1D-01,  6.5D-04, r^2= 1.2D+00
   Bfn.  Coefficient  Atom+Function         Bfn.  Coefficient  Atom+Function  
  ----- ------------  ---------------      ----- ------------  ---------------
    14      0.584005  3 N  py                 9     -0.487459  2 C  py         
    17     -0.469789  4 O  s                  4      0.461832  1 N  py         
     3     -0.346705  1 N  px                24     -0.305172  8 H  s          
    21     -0.300995  5 H  s                  2      0.225610  1 N  s          
    12      0.219848  3 N  s                  6     -0.166597  2 C  s          

 Vector   13  Occ=2.000000D+00  E=-5.082098D-01
              MO Center=  8.2D-02, -3.8D-01,  3.9D-02, r^2= 1.1D+00
   Bfn.  Coefficient  Atom+Function         Bfn.  Coefficient  Atom+Function  
  ----- ------------  ---------------      ----- ------------  ---------------
    15     -0.746060  3 N  pz                 5      0.720968  1 N  pz         
     3      0.254567  1 N  px                13      0.176182  3 N  px         

 Vector   14  Occ=2.000000D+00  E=-3.148638D-01
              MO Center= -2.1D-01,  8.7D-01,  8.2D-02, r^2= 6.5D-01
   Bfn.  Coefficient  Atom+Function         Bfn.  Coefficient  Atom+Function  
  ----- ------------  ---------------      ----- ------------  ---------------
    17      0.725213  4 O  s                 19      0.658663  4 O  py         
     9     -0.511373  2 C  py                22      0.229559  6 H  s          
    23      0.224718  7 H  s                 18     -0.164466  4 O  px         
    21     -0.157385  5 H  s                 24     -0.151467  8 H  s          

 Vector   15  Occ=2.000000D+00  E=-2.093684D-01
              MO Center= -1.1D-01,  4.7D-01,  1.2D-01, r^2= 8.6D-01
   Bfn.  Coefficient  Atom+Function         Bfn.  Coefficient  Atom+Function  
  ----- ------------  ---------------      ----- ------------  ---------------
    20      0.854553  4 O  pz                 5     -0.446164  1 N  pz         
    15     -0.442474  3 N  pz                10      0.292838  2 C  pz         

 Vector   16  Occ=2.000000D+00  E=-8.887402D-02
              MO Center= -1.7D-01,  6.7D-01,  1.1D-01, r^2= 5.8D-01
   Bfn.  Coefficient  Atom+Function         Bfn.  Coefficient  Atom+Function  
  ----- ------------  ---------------      ----- ------------  ---------------
    18      1.027403  4 O  px                 2     -0.393636  1 N  s          
    12      0.386855  3 N  s                 19      0.253654  4 O  py         
    14      0.229127  3 N  py                 4     -0.195916  1 N  py         
    21      0.193989  5 H  s                 24     -0.192051  8 H  s          

 Vector   17  Occ=0.000000D+00  E= 6.083160D-01
              MO Center=  1.3D-02, -4.5D-02,  1.8D-01, r^2= 9.9D-01
   Bfn.  Coefficient  Atom+Function         Bfn.  Coefficient  Atom+Function  
  ----- ------------  ---------------      ----- ------------  ---------------
    10      1.298934  2 C  pz                 5     -0.702601  1 N  pz         
    15     -0.695006  3 N  pz                20     -0.626715  4 O  pz         
     2     -0.601984  1 N  s                 12     -0.592878  3 N  s          
     7      0.446686  2 C  s                 23      0.324143  7 H  s          
    22      0.285589  6 H  s                  9     -0.236006  2 C  py         

 Vector   18  Occ=0.000000D+00  E= 7.471447D-01
              MO Center=  1.4D-01, -6.5D-01, -1.1D-01, r^2= 1.7D+00
   Bfn.  Coefficient  Atom+Function         Bfn.  Coefficient  Atom+Function  
  ----- ------------  ---------------      ----- ------------  ---------------
    12      1.460377  3 N  s                  2      1.446425  1 N  s          
    24     -1.300146  8 H  s                 21     -1.286866  5 H  s          
    23     -0.744920  7 H  s                 22     -0.714011  6 H  s          
    14     -0.596867  3 N  py                 7      0.547855  2 C  s          
     3      0.429185  1 N  px                 4     -0.428493  1 N  py         

 Vector   19  Occ=0.000000D+00  E= 9.901728D-01
              MO Center= -4.1D-01, -1.5D-01, -3.4D-02, r^2= 1.5D+00
   Bfn.  Coefficient  Atom+Function         Bfn.  Coefficient  Atom+Function  
  ----- ------------  ---------------      ----- ------------  ---------------
    23      1.684694  7 H  s                 21     -1.129207  5 H  s          
    12     -1.056416  3 N  s                 14     -0.783263  3 N  py         
     9     -0.704019  2 C  py                17      0.672811  4 O  s          
    19     -0.674209  4 O  py                 4     -0.667263  1 N  py         
    24     -0.632232  8 H  s                 13      0.625159  3 N  px         

 Vector   20  Occ=0.000000D+00  E= 9.920549D-01
              MO Center=  4.6D-01,  1.0D-01, -8.7D-02, r^2= 1.8D+00
   Bfn.  Coefficient  Atom+Function         Bfn.  Coefficient  Atom+Function  
  ----- ------------  ---------------      ----- ------------  ---------------
    22      1.914267  6 H  s                  2     -1.349849  1 N  s          
    23     -0.904439  7 H  s                 24     -0.815381  8 H  s          
     4     -0.771704  1 N  py                12      0.772005  3 N  s          
    13     -0.608948  3 N  px                 3     -0.585193  1 N  px         
     9     -0.427376  2 C  py                19     -0.369748  4 O  py         

 Vector   21  Occ=0.000000D+00  E= 1.501928D+00
              MO Center=  3.9D-03,  1.3D-02, -1.4D-02, r^2= 1.0D+00
   Bfn.  Coefficient  Atom+Function         Bfn.  Coefficient  Atom+Function  
  ----- ------------  ---------------      ----- ------------  ---------------
     7      5.708862  2 C  s                 12     -2.663242  3 N  s          
     2     -2.446894  1 N  s                 17     -1.573451  4 O  s          
     3      1.006579  1 N  px                13     -0.846464  3 N  px         
    19      0.717492  4 O  py                14     -0.621336  3 N  py         
    10     -0.512002  2 C  pz                 4     -0.356465  1 N  py         

 Vector   22  Occ=0.000000D+00  E= 1.569088D+00
              MO Center=  1.5D-01, -8.0D-01, -7.6D-02, r^2= 1.2D+00
   Bfn.  Coefficient  Atom+Function         Bfn.  Coefficient  Atom+Function  
  ----- ------------  ---------------      ----- ------------  ---------------
    24     -2.304272  8 H  s                 21      2.191318  5 H  s          
     2     -1.516246  1 N  s                  4      1.293732  1 N  py         
    14     -1.252409  3 N  py                12      1.172508  3 N  s          
    13      0.720014  3 N  px                23      0.706659  7 H  s          
    22     -0.592453  6 H  s                  7      0.418485  2 C  s          

 Vector   23  Occ=0.000000D+00  E= 1.801593D+00
              MO Center=  6.5D-02, -1.8D-01,  3.3D-02, r^2= 1.1D+00
   Bfn.  Coefficient  Atom+Function         Bfn.  Coefficient  Atom+Function  
  ----- ------------  ---------------      ----- ------------  ---------------
     9      2.223206  2 C  py                 7     -2.017131  2 C  s          
    13      1.425372  3 N  px                 2      1.349542  1 N  s          
    12      1.351750  3 N  s                 17     -1.217852  4 O  s          
     4     -1.191527  1 N  py                 3     -1.025076  1 N  px         
    22      0.920589  6 H  s                 23      0.856221  7 H  s          

 Vector   24  Occ=0.000000D+00  E= 2.765292D+00
              MO Center=  3.8D-02, -1.4D-01,  6.4D-02, r^2= 7.4D-01
   Bfn.  Coefficient  Atom+Function         Bfn.  Coefficient  Atom+Function  
  ----- ------------  ---------------      ----- ------------  ---------------
     8     -4.073184  2 C  px                 2      3.982127  1 N  s          
    12     -3.821105  3 N  s                  3     -1.574772  1 N  px         
    14     -1.231958  3 N  py                13     -1.073004  3 N  px         
     9     -0.988256  2 C  py                 4      0.599986  1 N  py         
    22     -0.406914  6 H  s                 23      0.406066  7 H  s          


 center of mass
 --------------
 x =   0.01294706 y =  -0.04296106 z =   0.06393050

 moments of inertia (a.u.)
 ------------------
          58.232085616883          -1.945166885587           2.533881687403
          -1.945166885587          64.227691513120          -5.832938557428
           2.533881687403          -5.832938557428         120.494654690298

     Multipole analysis of the density
     ---------------------------------

     L   x y z        total         alpha         beta         nuclear
     -   - - -        -----         -----         ----         -------
     0   0 0 0     -0.000000    -16.000000    -16.000000     32.000000

     1   1 0 0      0.279066     -0.244480     -0.244480      0.768027
     1   0 1 0     -1.128565      0.857922      0.857922     -2.844409
     1   0 0 1     -0.309332     -0.944142     -0.944142      1.578951

     2   2 0 0    -15.178653    -26.298241    -26.298241     37.417828
     2   1 1 0      0.224980     -0.703915     -0.703915      1.632811
     2   1 0 1      0.059772      0.737674      0.737674     -1.415577
     2   0 2 0    -16.059555    -24.016922    -24.016922     31.974289
     2   0 1 1     -0.249687     -1.657452     -1.657452      3.065216
     2   0 0 2    -14.994907     -7.836026     -7.836026      0.677145

 Line search: 
     step= 0.82 grad=-7.8D+00 hess= 3.1D+00 energy=   -215.854973 mode=downhill
 new step= 1.24                   predicted energy=   -216.412794

          --------
          Step   1
          --------


                         Geometry "geometry" -> "geometry"
                         ---------------------------------

 Output coordinates in a.u. (scale by  1.000000000 to convert to a.u.)

  No.       Tag          Charge          X              Y              Z
 ---- ---------------- ---------- -------------- -------------- --------------
    1 N                    7.0000     1.57229250    -0.39158358    -0.02844964
    2 C                    6.0000     0.10957614    -0.39199887     0.20757482
    3 N                    7.0000    -1.20729161    -1.09245263     0.01522781
    4 O                    8.0000    -0.37386828     1.53814962     0.27288783
    5 H                    1.0000     1.57061136    -1.49946412    -0.24768541
    6 H                    1.0000     2.04048408     0.81343386    -0.26631662
    7 H                    1.0000    -2.19595177    -0.24161738    -0.25463076
    8 H                    1.0000    -0.68825243    -2.07706690    -0.07430803

      Atomic Mass 
      ----------- 

      N                 14.003070
      C                 12.000000
      O                 15.994910
      H                  1.007825


 Effective nuclear repulsion energy (a.u.)     193.7685031291

            Nuclear Dipole moment (a.u.) 
            ----------------------------
        X                 Y               Z
 ---------------- ---------------- ----------------
     0.9484081475    -3.4397642296     2.4930579176


                                 NWChem DFT Module
                                 -----------------


                Urea TDC calculation number 10 in STO-3G basis set




 Summary of "ao basis" -> "ao basis" (cartesian)
 ------------------------------------------------------------------------------
       Tag                 Description            Shells   Functions and Types
 ---------------- ------------------------------  ------  ---------------------
 N                           STO-3G                  3        5   2s1p
 O                           STO-3G                  3        5   2s1p
 H                           STO-3G                  1        1   1s
 C                           STO-3G                  3        5   2s1p


  Caching 1-el integrals 

            General Information
            -------------------
          SCF calculation type: DFT
          Wavefunction type:  closed shell.
          No. of atoms     :     8
          No. of electrons :    32
           Alpha electrons :    16
            Beta electrons :    16
          Charge           :     0
          Spin multiplicity:     1
          Use of symmetry is: off; symmetry adaption is: off
          Maximum number of iterations: 100
          AO basis - number of functions:    24
                     number of shells:    16
          Convergence on energy requested: 1.00D-06
          Convergence on density requested: 1.00D-05
          Convergence on gradient requested: 5.00D-04

              XC Information
              --------------
                        BHLYP Method XC Functional
                     Hartree-Fock (Exact) Exchange  0.500          
                        Slater Exchange Functional  0.500 local    
                    Becke 1988 Exchange Functional  0.500 non-local
              Lee-Yang-Parr Correlation Functional  1.000          

             Grid Information
             ----------------
          Grid used for XC integration:  medium    
          Radial quadrature: Mura-Knowles        
          Angular quadrature: Lebedev. 
          Tag              B.-S. Rad. Rad. Pts. Rad. Cut. Ang. Pts.
          ---              ---------- --------- --------- ---------
          N                   0.65       49           7.0       434
          C                   0.70       49           6.0       434
          O                   0.60       49           6.0       434
          H                   0.35       45           7.0       434
          Grid pruning is: on 
          Number of quadrature shells:   376
          Spatial weights used:  Erf1

          Convergence Information
          -----------------------
          Convergence aids based upon iterative change in 
          total energy or number of iterations. 
          Levelshifting, if invoked, occurs when the 
          HOMO/LUMO gap drops below (HL_TOL): 1.00D-02
          DIIS, if invoked, will attempt to extrapolate 
          using up to (NFOCK): 10 stored Fock matrices.

                    Damping( 0%)  Levelshifting(0.5)       DIIS
                  --------------- ------------------- ---------------
          dE  on:    start            ASAP                start   
          dE off:    2 iters        100 iters           100 iters 


      Screening Tolerance Information
      -------------------------------
          Density screening/tol_rho: 1.00D-10
          AO Gaussian exp screening on grid/accAOfunc:  14
          CD Gaussian exp screening on grid/accCDfunc:  20
          XC Gaussian exp screening on grid/accXCfunc:  20
          Schwarz screening/accCoul: 1.00D-08


 Loading old vectors from job with title :

Urea TDC calculation number 10 in STO-3G basis set

   Time after variat. SCF:      0.9
   Time prior to 1st pass:      0.9

 Grid_pts file          = /scratch/owengray/Urea_TDC_10//Urea_TDC_10.gridpts.00
 Record size in doubles =  12289        No. of grid_pts per rec  =   3070
 Max. records in memory =      4        Max. recs in file   =  50662543


           Memory utilization after 1st SCF pass: 
           Heap Space remaining (MW):      126.36           126362276
          Stack Space remaining (MW):      210.62           210617508

   convergence    iter        energy       DeltaE   RMS-Dens  Diis-err    time
 ---------------- ----- ----------------- --------- --------- ---------  ------
 d= 0,ls=0.0,diis     1   -217.0755041563 -4.11D+02  5.31D-02  4.31D-01     1.0
 d= 0,ls=0.0,diis     2   -217.1212240894 -4.57D-02  1.11D-02  1.37D-02     1.0
 d= 0,ls=0.0,diis     3   -217.1228887261 -1.66D-03  3.77D-03  1.85D-03     1.1
 d= 0,ls=0.0,diis     4   -217.1231921765 -3.03D-04  9.90D-04  1.44D-04     1.1
 d= 0,ls=0.0,diis     5   -217.1232132945 -2.11D-05  2.36D-04  2.89D-06     1.2
 d= 0,ls=0.0,diis     6   -217.1232141160 -8.21D-07  2.19D-05  3.07D-08     1.2
 d= 0,ls=0.0,diis     7   -217.1232141227 -6.66D-09  2.12D-06  6.84D-10     1.3


         Total DFT energy =     -217.123214122687
      One electron energy =     -671.003145536703
           Coulomb energy =      291.599196594964
    Exchange-Corr. energy =      -31.487768310040
 Nuclear repulsion energy =      193.768503129092

 Numeric. integr. density =       32.000006803522

     Total iterative time =      0.4s



                       DFT Final Molecular Orbital Analysis
                       ------------------------------------

 Vector    5  Occ=2.000000D+00  E=-1.682331D+00
              MO Center=  1.2D-01, -4.5D-01, -4.6D-02, r^2= 6.6D-01
   Bfn.  Coefficient  Atom+Function         Bfn.  Coefficient  Atom+Function  
  ----- ------------  ---------------      ----- ------------  ---------------
     2      0.544520  1 N  s                 12      0.531305  3 N  s          
    13      0.309070  3 N  px                 3     -0.287709  1 N  px         
     6     -0.287766  2 C  s                  7     -0.186213  2 C  s          
    17      0.173531  4 O  s                  1     -0.156982  1 N  s          
    11     -0.154214  3 N  s          

 Vector    6  Occ=2.000000D+00  E=-1.443574D+00
              MO Center=  8.7D-02, -2.9D-01,  4.0D-02, r^2= 7.7D-01
   Bfn.  Coefficient  Atom+Function         Bfn.  Coefficient  Atom+Function  
  ----- ------------  ---------------      ----- ------------  ---------------
     8      0.553570  2 C  px                 2      0.306572  1 N  s          
    12     -0.305672  3 N  s                 13     -0.227584  3 N  px         
     3     -0.214408  1 N  px                 1     -0.202370  1 N  s          
    11      0.201160  3 N  s                  9      0.165286  2 C  py         

 Vector    7  Occ=2.000000D+00  E=-1.384476D+00
              MO Center= -6.3D-03,  1.0D-02,  7.1D-02, r^2= 8.6D-01
   Bfn.  Coefficient  Atom+Function         Bfn.  Coefficient  Atom+Function  
  ----- ------------  ---------------      ----- ------------  ---------------
     9      0.374883  2 C  py                 4      0.336550  1 N  py         
    17      0.287151  4 O  s                 14      0.277183  3 N  py         
    13     -0.158077  3 N  px                19     -0.155515  4 O  py         

 Vector    8  Occ=2.000000D+00  E=-9.816735D-01
              MO Center=  6.0D-02, -4.1D-01, -5.1D-03, r^2= 1.2D+00
   Bfn.  Coefficient  Atom+Function         Bfn.  Coefficient  Atom+Function  
  ----- ------------  ---------------      ----- ------------  ---------------
     4      0.569276  1 N  py                14     -0.513957  3 N  py         
    13      0.326706  3 N  px                24      0.190878  8 H  s          
    21     -0.182953  5 H  s          

 Vector    9  Occ=2.000000D+00  E=-9.288176D-01
              MO Center=  1.3D-01, -2.4D-01,  9.8D-02, r^2= 1.0D+00
   Bfn.  Coefficient  Atom+Function         Bfn.  Coefficient  Atom+Function  
  ----- ------------  ---------------      ----- ------------  ---------------
    10      0.472252  2 C  pz                 5      0.357866  1 N  pz         
    15      0.340537  3 N  pz                 4     -0.249375  1 N  py         
    17      0.164232  4 O  s          

 Vector   10  Occ=2.000000D+00  E=-8.089957D-01
              MO Center=  1.1D-01, -1.6D-01, -1.3D-02, r^2= 1.7D+00
   Bfn.  Coefficient  Atom+Function         Bfn.  Coefficient  Atom+Function  
  ----- ------------  ---------------      ----- ------------  ---------------
    13     -0.405884  3 N  px                 3      0.380773  1 N  px         
     2      0.331983  1 N  s                 17     -0.315275  4 O  s          
    12      0.299585  3 N  s                 22      0.211280  6 H  s          
     4      0.202932  1 N  py                23      0.202107  7 H  s          
     7     -0.194784  2 C  s                 10      0.188401  2 C  pz         

 Vector   11  Occ=2.000000D+00  E=-7.756607D-01
              MO Center=  1.7D-02, -3.8D-01, -1.1D-01, r^2= 1.6D+00
   Bfn.  Coefficient  Atom+Function         Bfn.  Coefficient  Atom+Function  
  ----- ------------  ---------------      ----- ------------  ---------------
     8      0.496750  2 C  px                13     -0.456865  3 N  px         
     3     -0.448514  1 N  px                12      0.291633  3 N  s          
     2     -0.254160  1 N  s                  5      0.207066  1 N  pz         
    23      0.207732  7 H  s                 15     -0.198345  3 N  pz         
    21     -0.186066  5 H  s                 24      0.186656  8 H  s          

 Vector   12  Occ=2.000000D+00  E=-6.213850D-01
              MO Center=  2.4D-03, -8.0D-02,  4.2D-02, r^2= 1.4D+00
   Bfn.  Coefficient  Atom+Function         Bfn.  Coefficient  Atom+Function  
  ----- ------------  ---------------      ----- ------------  ---------------
    17      0.683034  4 O  s                 14     -0.511242  3 N  py         
     4     -0.373103  1 N  py                 9      0.335596  2 C  py         
     3      0.332242  1 N  px                24      0.311617  8 H  s          
    21      0.301669  5 H  s                  2     -0.274046  1 N  s          
    12     -0.259001  3 N  s                 16     -0.175502  4 O  s          

 Vector   13  Occ=2.000000D+00  E=-4.822998D-01
              MO Center=  8.4D-02, -4.0D-01,  7.9D-02, r^2= 1.2D+00
   Bfn.  Coefficient  Atom+Function         Bfn.  Coefficient  Atom+Function  
  ----- ------------  ---------------      ----- ------------  ---------------
    15     -0.717352  3 N  pz                 5      0.682222  1 N  pz         
     3      0.328634  1 N  px                13      0.238386  3 N  px         

 Vector   14  Occ=2.000000D+00  E=-2.838705D-01
              MO Center= -1.6D-01,  6.6D-01,  7.2D-02, r^2= 1.0D+00
   Bfn.  Coefficient  Atom+Function         Bfn.  Coefficient  Atom+Function  
  ----- ------------  ---------------      ----- ------------  ---------------
     9      0.655339  2 C  py                17     -0.617585  4 O  s          
    19     -0.585308  4 O  py                22     -0.267324  6 H  s          
    23     -0.259482  7 H  s                 21      0.235677  5 H  s          
    24      0.222816  8 H  s                 14     -0.182792  3 N  py         
     8     -0.161881  2 C  px         

 Vector   15  Occ=2.000000D+00  E=-1.392503D-01
              MO Center= -1.4D-01,  6.0D-01,  1.6D-01, r^2= 7.8D-01
   Bfn.  Coefficient  Atom+Function         Bfn.  Coefficient  Atom+Function  
  ----- ------------  ---------------      ----- ------------  ---------------
    20      0.901731  4 O  pz                 5     -0.359813  1 N  pz         
    15     -0.355037  3 N  pz                10      0.234225  2 C  pz         

 Vector   16  Occ=2.000000D+00  E=-6.734577D-02
              MO Center= -1.8D-01,  7.3D-01,  1.3D-01, r^2= 6.0D-01
   Bfn.  Coefficient  Atom+Function         Bfn.  Coefficient  Atom+Function  
  ----- ------------  ---------------      ----- ------------  ---------------
    18      0.998617  4 O  px                 2     -0.326788  1 N  s          
    12      0.314300  3 N  s                 19      0.240427  4 O  py         
     4     -0.202191  1 N  py                14      0.186201  3 N  py         
    21      0.185405  5 H  s                 24     -0.181013  8 H  s          

 Vector   17  Occ=0.000000D+00  E= 4.970850D-01
              MO Center=  3.5D-02, -1.7D-01,  2.0D-01, r^2= 1.2D+00
   Bfn.  Coefficient  Atom+Function         Bfn.  Coefficient  Atom+Function  
  ----- ------------  ---------------      ----- ------------  ---------------
    10      1.056586  2 C  pz                12     -0.880593  3 N  s          
     2     -0.868296  1 N  s                  5     -0.599831  1 N  pz         
    15     -0.590903  3 N  pz                 7      0.480192  2 C  s          
    23      0.463604  7 H  s                 20     -0.417716  4 O  pz         
    22      0.415039  6 H  s                  9     -0.330497  2 C  py         

 Vector   18  Occ=0.000000D+00  E= 6.415771D-01
              MO Center=  6.1D-02, -4.1D-01, -7.8D-02, r^2= 1.7D+00
   Bfn.  Coefficient  Atom+Function         Bfn.  Coefficient  Atom+Function  
  ----- ------------  ---------------      ----- ------------  ---------------
    12      1.214220  3 N  s                  2      1.172653  1 N  s          
    24     -0.973889  8 H  s                 21     -0.927825  5 H  s          
    23     -0.670495  7 H  s                 22     -0.628214  6 H  s          
    10      0.617969  2 C  pz                 5     -0.512220  1 N  pz         
    15     -0.476179  3 N  pz                 7      0.441913  2 C  s          

 Vector   19  Occ=0.000000D+00  E= 8.506045D-01
              MO Center=  4.7D-02,  5.1D-02, -1.4D-01, r^2= 2.1D+00
   Bfn.  Coefficient  Atom+Function         Bfn.  Coefficient  Atom+Function  
  ----- ------------  ---------------      ----- ------------  ---------------
    22      1.368115  6 H  s                 23     -1.248073  7 H  s          
     2     -1.054706  1 N  s                 12      0.913014  3 N  s          
    13     -0.651402  3 N  px                24     -0.513182  8 H  s          
     3     -0.504471  1 N  px                21      0.436538  5 H  s          
     4     -0.387220  1 N  py                 8     -0.250472  2 C  px         

 Vector   20  Occ=0.000000D+00  E= 8.590273D-01
              MO Center=  5.1D-02, -1.9D-01,  1.4D-02, r^2= 1.5D+00
   Bfn.  Coefficient  Atom+Function         Bfn.  Coefficient  Atom+Function  
  ----- ------------  ---------------      ----- ------------  ---------------
    21      1.214303  5 H  s                 24      1.027507  8 H  s          
     9      0.914233  2 C  py                19      0.774819  4 O  py         
    14      0.728328  3 N  py                 4      0.720008  1 N  py         
    23     -0.698407  7 H  s                 17     -0.654208  4 O  s          
    22     -0.562863  6 H  s                  7     -0.347584  2 C  s          

 Vector   21  Occ=0.000000D+00  E= 1.339499D+00
              MO Center=  6.6D-02, -2.5D-01,  8.9D-03, r^2= 1.3D+00
   Bfn.  Coefficient  Atom+Function         Bfn.  Coefficient  Atom+Function  
  ----- ------------  ---------------      ----- ------------  ---------------
     7      2.082396  2 C  s                  9     -1.486797  2 C  py         
    13     -1.309218  3 N  px                 4      1.106281  1 N  py         
    12     -1.049245  3 N  s                 22     -0.964920  6 H  s          
     2     -0.927017  1 N  s                 23     -0.927757  7 H  s          
     3      0.886251  1 N  px                17      0.615383  4 O  s          

 Vector   22  Occ=0.000000D+00  E= 1.470373D+00
              MO Center=  1.0D-01, -4.6D-02, -2.3D-02, r^2= 1.0D+00
   Bfn.  Coefficient  Atom+Function         Bfn.  Coefficient  Atom+Function  
  ----- ------------  ---------------      ----- ------------  ---------------
     7      4.645264  2 C  s                 12     -2.400552  3 N  s          
     2     -1.915714  1 N  s                 17     -1.110919  4 O  s          
     3      0.941687  1 N  px                13     -0.861013  3 N  px         
    21     -0.755731  5 H  s                  4     -0.670002  1 N  py         
    19      0.628361  4 O  py                10     -0.597140  2 C  pz         

 Vector   23  Occ=0.000000D+00  E= 1.487282D+00
              MO Center=  7.0D-02, -7.5D-01, -7.3D-02, r^2= 1.2D+00
   Bfn.  Coefficient  Atom+Function         Bfn.  Coefficient  Atom+Function  
  ----- ------------  ---------------      ----- ------------  ---------------
    24      2.095249  8 H  s                 21     -1.893845  5 H  s          
     2      1.422770  1 N  s                  7     -1.415147  2 C  s          
    14      1.372990  3 N  py                 4     -1.181072  1 N  py         
    23     -0.689967  7 H  s                 22      0.521875  6 H  s          
    13     -0.310337  3 N  px                 8      0.292018  2 C  px         

 Vector   24  Occ=0.000000D+00  E= 2.792190D+00
              MO Center=  6.6D-02, -2.3D-01,  1.0D-01, r^2= 7.4D-01
   Bfn.  Coefficient  Atom+Function         Bfn.  Coefficient  Atom+Function  
  ----- ------------  ---------------      ----- ------------  ---------------
     2      3.964887  1 N  s                  8     -3.966938  2 C  px         
    12     -3.742726  3 N  s                  3     -1.628101  1 N  px         
    13     -1.321879  3 N  px                 9     -0.965483  2 C  py         
    14     -0.824905  3 N  py                24      0.531156  8 H  s          
    21     -0.470258  5 H  s                  5      0.373158  1 N  pz         


 center of mass
 --------------
 x =   0.01963336 y =  -0.06514339 z =   0.09696490

 moments of inertia (a.u.)
 ------------------
          66.992981707905          -1.485273118189           2.681674850295
          -1.485273118189          70.766058090698          -6.413093242739
           2.681674850295          -6.413093242739         135.034010138915

     Multipole analysis of the density
     ---------------------------------

     L   x y z        total         alpha         beta         nuclear
     -   - - -        -----         -----         ----         -------
     0   0 0 0     -0.000000    -16.000000    -16.000000     32.000000

     1   1 0 0      0.293748     -0.327330     -0.327330      0.948408
     1   0 1 0     -1.200527      1.119618      1.119618     -3.439764
     1   0 0 1     -0.398906     -1.445982     -1.445982      2.493058

     2   2 0 0    -15.630213    -28.127181    -28.127181     40.624149
     2   1 1 0      0.081427     -0.623876     -0.623876      1.329180
     2   1 0 1      0.099683      0.771673      0.771673     -1.443663
     2   0 2 0    -15.994260    -26.276830    -26.276830     36.559399
     2   0 1 1     -0.367483     -1.784685     -1.784685      3.201888
     2   0 0 2    -15.182062     -8.123124     -8.123124      1.064186


            General Information
            -------------------
[...]
    18     -0.286682  4 O  px                21     -0.280949  5 H  s          
     3     -0.272930  1 N  px                23      0.269490  7 H  s          
    19      0.244137  4 O  py                 8      0.216500  2 C  px         
     9     -0.173912  2 C  py                20      0.162969  4 O  pz         

 Vector   12  Occ=2.000000D+00  E=-3.891945D-01
              MO Center= -2.8D-01,  1.1D-01, -1.3D-01, r^2= 2.0D+00
   Bfn.  Coefficient  Atom+Function         Bfn.  Coefficient  Atom+Function  
  ----- ------------  ---------------      ----- ------------  ---------------
    20      0.579932  4 O  pz                 9      0.346790  2 C  py         
    10      0.341148  2 C  pz                15      0.297912  3 N  pz         
     4     -0.218116  1 N  py                21      0.183485  5 H  s          
    22     -0.175928  6 H  s                 17     -0.170979  4 O  s          

 Vector   13  Occ=2.000000D+00  E=-3.523378D-01
              MO Center= -5.0D-01,  4.8D-01, -1.8D-01, r^2= 1.7D+00
   Bfn.  Coefficient  Atom+Function         Bfn.  Coefficient  Atom+Function  
  ----- ------------  ---------------      ----- ------------  ---------------
    19      0.520237  4 O  py                18      0.458018  4 O  px         
    17      0.423917  4 O  s                 10      0.277487  2 C  pz         
    23     -0.265329  7 H  s                 14      0.222835  3 N  py         
    13      0.189998  3 N  px                 3      0.173889  1 N  px         
     9     -0.155444  2 C  py         

 Vector   14  Occ=2.000000D+00  E=-2.804480D-01
              MO Center=  8.0D-01, -9.0D-02,  8.6D-02, r^2= 1.9D+00
   Bfn.  Coefficient  Atom+Function         Bfn.  Coefficient  Atom+Function  
  ----- ------------  ---------------      ----- ------------  ---------------
     5      0.576441  1 N  pz                 2      0.441027  1 N  s          
    20     -0.395860  4 O  pz                 4     -0.336483  1 N  py         
    19     -0.268017  4 O  py                 3      0.264700  1 N  px         

 Vector   15  Occ=2.000000D+00  E=-2.605477D-01
              MO Center= -9.9D-01, -9.0D-01,  2.6D-01, r^2= 1.6D+00
   Bfn.  Coefficient  Atom+Function         Bfn.  Coefficient  Atom+Function  
  ----- ------------  ---------------      ----- ------------  ---------------
    13      0.681065  3 N  px                12     -0.574165  3 N  s          
     3      0.269460  1 N  px                24      0.261744  8 H  s          
    19     -0.243856  4 O  py                14     -0.206564  3 N  py         

 Vector   16  Occ=2.000000D+00  E=-2.243608D-01
              MO Center= -4.2D-01, -3.0D-01,  7.7D-02, r^2= 2.2D+00
   Bfn.  Coefficient  Atom+Function         Bfn.  Coefficient  Atom+Function  
  ----- ------------  ---------------      ----- ------------  ---------------
    15      0.619302  3 N  pz                20     -0.520825  4 O  pz         
     5     -0.308571  1 N  pz                10      0.252910  2 C  pz         
     2     -0.195210  1 N  s                 19     -0.192228  4 O  py         
    18     -0.180272  4 O  px                 3     -0.160893  1 N  px         
     4      0.161231  1 N  py         

 Vector   17  Occ=0.000000D+00  E= 1.774798D-01
              MO Center= -4.5D-01, -5.2D-01,  1.4D-01, r^2= 1.5D+00
   Bfn.  Coefficient  Atom+Function         Bfn.  Coefficient  Atom+Function  
  ----- ------------  ---------------      ----- ------------  ---------------
    10      0.777451  2 C  pz                15     -0.688729  3 N  pz         
    20     -0.311389  4 O  pz                 9      0.275958  2 C  py         
    21      0.240561  5 H  s                 14     -0.173196  3 N  py         

 Vector   18  Occ=0.000000D+00  E= 3.743393D-01
              MO Center= -7.3D-02,  1.7D-01, -9.8D-02, r^2= 2.4D+00
   Bfn.  Coefficient  Atom+Function         Bfn.  Coefficient  Atom+Function  
  ----- ------------  ---------------      ----- ------------  ---------------
     7     -0.779036  2 C  s                  2      0.732082  1 N  s          
    23     -0.693132  7 H  s                 17      0.560553  4 O  s          
     3     -0.522016  1 N  px                21     -0.388599  5 H  s          
     8     -0.383325  2 C  px                18     -0.319356  4 O  px         
     5     -0.273261  1 N  pz                20      0.239429  4 O  pz         

 Vector   19  Occ=0.000000D+00  E= 4.001711D-01
              MO Center= -4.8D-01, -6.7D-01,  1.8D-01, r^2= 2.6D+00
   Bfn.  Coefficient  Atom+Function         Bfn.  Coefficient  Atom+Function  
  ----- ------------  ---------------      ----- ------------  ---------------
    24      0.774980  8 H  s                  2      0.486432  1 N  s          
    14      0.473605  3 N  py                 8     -0.460259  2 C  px         
    17     -0.458142  4 O  s                  9      0.448960  2 C  py         
    23      0.415904  7 H  s                 12     -0.410898  3 N  s          
    19      0.337416  4 O  py                18      0.262229  4 O  px         

 Vector   20  Occ=0.000000D+00  E= 4.510248D-01
              MO Center=  1.2D+00, -9.0D-02, -1.3D-01, r^2= 2.0D+00
   Bfn.  Coefficient  Atom+Function         Bfn.  Coefficient  Atom+Function  
  ----- ------------  ---------------      ----- ------------  ---------------
    22      0.844596  6 H  s                  2     -0.660176  1 N  s          
    21      0.640289  5 H  s                  3     -0.562597  1 N  px         
     5      0.455924  1 N  pz                 4     -0.417260  1 N  py         
    24      0.347069  8 H  s                  7     -0.273673  2 C  s          
    12     -0.234287  3 N  s                 14      0.231240  3 N  py         

 Vector   21  Occ=0.000000D+00  E= 4.631439D-01
              MO Center= -2.8D-01,  2.1D-01, -1.2D-01, r^2= 2.8D+00
   Bfn.  Coefficient  Atom+Function         Bfn.  Coefficient  Atom+Function  
  ----- ------------  ---------------      ----- ------------  ---------------
    23     -0.713523  7 H  s                  7      0.650291  2 C  s          
    18     -0.605167  4 O  px                 4      0.425230  1 N  py         
    19      0.406414  4 O  py                21      0.399726  5 H  s          
    22     -0.389504  6 H  s                 24      0.372151  8 H  s          
    12     -0.366628  3 N  s                 13     -0.286320  3 N  px         

 Vector   22  Occ=0.000000D+00  E= 4.907059D-01
              MO Center=  8.2D-01, -4.0D-01, -6.8D-02, r^2= 2.4D+00
   Bfn.  Coefficient  Atom+Function         Bfn.  Coefficient  Atom+Function  
  ----- ------------  ---------------      ----- ------------  ---------------
    21      0.768415  5 H  s                  4      0.588166  1 N  py         
    22     -0.576199  6 H  s                  5      0.536793  1 N  pz         
     7     -0.526784  2 C  s                 12      0.463941  3 N  s          
    13      0.407607  3 N  px                24     -0.409280  8 H  s          
     3     -0.355630  1 N  px                23      0.252896  7 H  s          

 Vector   23  Occ=0.000000D+00  E= 5.919567D-01
              MO Center= -2.3D-01, -3.7D-01,  9.1D-02, r^2= 2.1D+00
   Bfn.  Coefficient  Atom+Function         Bfn.  Coefficient  Atom+Function  
  ----- ------------  ---------------      ----- ------------  ---------------
     9      0.762160  2 C  py                24     -0.566615  8 H  s          
    19      0.525747  4 O  py                14     -0.490385  3 N  py         
     4     -0.435237  1 N  py                17     -0.408110  4 O  s          
    22      0.377950  6 H  s                  8     -0.373263  2 C  px         
    13      0.365629  3 N  px                12      0.356537  3 N  s          

 Vector   24  Occ=0.000000D+00  E= 7.834225D-01
              MO Center= -5.1D-01, -5.5D-01,  1.6D-01, r^2= 1.0D+00
   Bfn.  Coefficient  Atom+Function         Bfn.  Coefficient  Atom+Function  
  ----- ------------  ---------------      ----- ------------  ---------------
     8      0.999777  2 C  px                12      0.776565  3 N  s          
    14      0.779828  3 N  py                 9      0.657354  2 C  py         
     7     -0.624774  2 C  s                 13      0.573129  3 N  px         
     2     -0.306157  1 N  s                  3      0.282700  1 N  px         
    18     -0.245872  4 O  px                15     -0.225588  3 N  pz         


 center of mass
 --------------
 x =  -0.22222042 y =  -0.29008150 z =   0.01854798

 moments of inertia (a.u.)
 ------------------
         158.245175816455          -8.486917484540           6.924625951931
          -8.486917484540         210.861792261804          42.214905327149
           6.924625951931          42.214905327149         334.918112724251

     Multipole analysis of the density
     ---------------------------------

     L   x y z        total         alpha         beta         nuclear
     -   - - -        -----         -----         ----         -------
     0   0 0 0     -0.000000    -16.000000    -16.000000     32.000000

     1   1 0 0      0.287293      3.036954      3.036954     -5.786615
     1   0 1 0      0.218835      4.931678      4.931678     -9.644520
     1   0 0 1     -0.354739     -0.301563     -0.301563      0.248387

     2   2 0 0    -16.913086    -64.548000    -64.548000    112.182915
     2   1 1 0     -1.214074     -3.602875     -3.602875      5.991676
     2   1 0 1     -1.747595      2.423132      2.423132     -6.593859
     2   0 2 0    -15.104884    -49.729247    -49.729247     84.353609
     2   0 1 1      1.005156     11.685020     11.685020    -22.364885
     2   0 0 2    -16.194069    -13.285291    -13.285291     10.376512


            General Information
            -------------------
          SCF calculation type: DFT
          Wavefunction type:  closed shell.
          No. of atoms     :     8
          No. of electrons :    32
           Alpha electrons :    16
            Beta electrons :    16
          Charge           :     0
          Spin multiplicity:     1
          Use of symmetry is: off; symmetry adaption is: off
          Maximum number of iterations: 100
          AO basis - number of functions:    24
                     number of shells:    16
          Convergence on energy requested: 1.00D-06
          Convergence on density requested: 1.00D-05
          Convergence on gradient requested: 5.00D-04

              XC Information
              --------------
                        BHLYP Method XC Functional
                     Hartree-Fock (Exact) Exchange  0.500          
                        Slater Exchange Functional  0.500 local    
                    Becke 1988 Exchange Functional  0.500 non-local
              Lee-Yang-Parr Correlation Functional  1.000          

             Grid Information
             ----------------
          Grid used for XC integration:  medium    
          Radial quadrature: Mura-Knowles        
          Angular quadrature: Lebedev. 
          Tag              B.-S. Rad. Rad. Pts. Rad. Cut. Ang. Pts.
          ---              ---------- --------- --------- ---------
          N                   0.65       49           8.0       434
          C                   0.70       49           7.0       434
          O                   0.60       49           8.0       434
          H                   0.35       45          10.0       434
          Grid pruning is: on 
          Number of quadrature shells:   376
          Spatial weights used:  Erf1

          Convergence Information
          -----------------------
          Convergence aids based upon iterative change in 
          total energy or number of iterations. 
          Levelshifting, if invoked, occurs when the 
          HOMO/LUMO gap drops below (HL_TOL): 1.00D-02
          DIIS, if invoked, will attempt to extrapolate 
          using up to (NFOCK): 10 stored Fock matrices.

                    Damping( 0%)  Levelshifting(0.5)       DIIS
                  --------------- ------------------- ---------------
          dE  on:    start            ASAP                start   
          dE off:    2 iters        100 iters           100 iters 


      Screening Tolerance Information
      -------------------------------
          Density screening/tol_rho: 1.00D-10
          AO Gaussian exp screening on grid/accAOfunc:  14
          CD Gaussian exp screening on grid/accCDfunc:  20
          XC Gaussian exp screening on grid/accXCfunc:  20
          Schwarz screening/accCoul: 1.00D-08



                            NWChem DFT Gradient Module
                            --------------------------


                Urea TDC calculation number 10 in STO-3G basis set



  charge          =   0.00
  wavefunction    = closed shell



                         DFT ENERGY GRADIENTS

    atom               coordinates                        gradient
                 x          y          z           x          y          z
   1 N       2.514622  -0.520345   0.144629    0.018633   0.013384  -0.000307
   2 C      -0.294451  -0.532164   0.139908   -0.006129   0.012087   0.010698
   3 N      -2.037558  -2.162719   0.631464   -0.001889   0.023863  -0.005407
   4 O      -1.143478   1.779612  -0.676002   -0.010361  -0.037134  -0.001042
   5 H       3.116419  -1.227978  -1.609555    0.001333   0.002321  -0.003633
   6 H       2.842510   1.404121   0.021196   -0.010068  -0.010741   0.001767
   7 H      -2.918684   1.876679  -0.062050    0.011816   0.003934   0.002080
   8 H      -1.251780  -3.959805   1.034710   -0.003334  -0.007715  -0.004155

                 ----------------------------------------
                 |  Time  |  1-e(secs)   |  2-e(secs)   |
                 ----------------------------------------
                 |  CPU   |       0.00   |       0.02   |
                 ----------------------------------------
                 |  WALL  |       0.00   |       0.03   |
                 ----------------------------------------

  Step       Energy      Delta E   Gmax     Grms     Xrms     Xmax   Walltime
  ---- ---------------- -------- -------- -------- -------- -------- --------
@   20    -222.09564382 -2.0D-03  0.03713  0.01191  0.02492  0.06674     19.3
                                                                    


 ---------------------------------------------------------------
 Failed to converge in maximum number of steps or available time
 ---------------------------------------------------------------


  Step       Energy      Delta E   Gmax     Grms     Xrms     Xmax   Walltime
  ---- ---------------- -------- -------- -------- -------- -------- --------
@   20    -222.09564382 -2.0D-03  0.03713  0.01191  0.02492  0.06674     19.3
                                                                    



                         Geometry "geometry" -> "geometry"
                         ---------------------------------

 Output coordinates in a.u. (scale by  1.000000000 to convert to a.u.)

  No.       Tag          Charge          X              Y              Z
 ---- ---------------- ---------- -------------- -------------- --------------
    1 N                    7.0000     2.51462223    -0.52034486     0.14462894
    2 C                    6.0000    -0.29445076    -0.53216388     0.13990757
    3 N                    7.0000    -2.03755805    -2.16271946     0.63146433
    4 O                    8.0000    -1.14347799     1.77961213    -0.67600152
    5 H                    1.0000     3.11641860    -1.22797846    -1.60955459
    6 H                    1.0000     2.84251014     1.40412082     0.02119584
    7 H                    1.0000    -2.91868371     1.87667868    -0.06205049
    8 H                    1.0000    -1.25178047    -3.95980497     1.03470991

      Atomic Mass 
      ----------- 

      N                 14.003070
      C                 12.000000
      O                 15.994910
      H                  1.007825


 Effective nuclear repulsion energy (a.u.)     120.5271292659

            Nuclear Dipole moment (a.u.) 
            ----------------------------
        X                 Y               Z
 ---------------- ---------------- ----------------
    -5.7866146322    -9.6445204567     0.2483868710

 ==============================================================================
                                internuclear distances
 ------------------------------------------------------------------------------
       center one      |      center two      | atomic units |       a.u.
 ------------------------------------------------------------------------------
    2 C                |   1 N                |     2.80910  |     2.80910
    3 N                |   2 C                |     2.43696  |     2.43696
    4 O                |   2 C                |     2.59439  |     2.59439
    5 H                |   1 N                |     1.98496  |     1.98496
    6 H                |   1 N                |     1.95610  |     1.95610
    7 H                |   4 O                |     1.88088  |     1.88088
    8 H                |   3 N                |     2.00239  |     2.00239
 ------------------------------------------------------------------------------
                         number of included internuclear distances:          7
 ==============================================================================



 ==============================================================================
                                 internuclear angles
 ------------------------------------------------------------------------------
        center 1       |       center 2       |       center 3       |  degrees
 ------------------------------------------------------------------------------
    2 C                |   1 N                |   5 H                |   107.47
    2 C                |   1 N                |   6 H                |    99.88
    5 H                |   1 N                |   6 H                |   104.13
    1 N                |   2 C                |   3 N                |   135.87
    1 N                |   2 C                |   4 O                |   108.91
    3 N                |   2 C                |   4 O                |   115.19
    2 C                |   3 N                |   8 H                |   111.13
    2 C                |   4 O                |   7 H                |   104.61
 ------------------------------------------------------------------------------
                            number of included internuclear angles:          8
 ==============================================================================



 ------------------------------------------------------------------------
 dft optimize failed                                                                                0
 ------------------------------------------------------------------------
 ------------------------------------------------------------------------
  current input line : 
    29: task dft optimize
 ------------------------------------------------------------------------
 ------------------------------------------------------------------------
 This type of error is most commonly associated with calculations not reaching convergence criteria
 ------------------------------------------------------------------------
 For more information see the NWChem manual at http://www.nwchem-sw.org/index.php/NWChem_Documentation


 For further details see manual section:                                                                                                                                                                                                                                                                
0:0:dft optimize failed:: -1
(rank:0 hostname:g24 pid:47032):ARMCI DASSERT fail. ../../ga-5-4/armci/src/common/armci.c:ARMCI_Error():208 cond:0
