 argument  1 = /scratch/owengray/water_TDC_9/water_TDC_9.nw



============================== echo of input deck ==============================
echo

start water_TDC_9
title "water TDC calculation number 9 in STO-3G basis set"
scratch_dir /scratch/owengray/water_TDC_9/
geometry units au noautoz nocenter
symmetry c1
	H	0	0	-1
	O	0	0	0
	H	0	1	0
end
basis
	O library STO-3G
	H library STO-3G
end
charge 0
scf
	rohf
	vectors output water_TDC_9.movecs
end
task scf optimize
tddft
	cis
	print debug
	notriplet
	civecs
end
task tddft optimize
dplot
	root 1
	limitxyz
		-1	1	100
		-1	2	100
		-2	1	100
		gaussian
		output water_TDC_9_root1.cube
end
task dplot
================================================================================


                                         
                                         


              Northwest Computational Chemistry Package (NWChem) 6.6
              ------------------------------------------------------


                    Environmental Molecular Sciences Laboratory
                       Pacific Northwest National Laboratory
                                Richland, WA 99352

                              Copyright (c) 1994-2015
                       Pacific Northwest National Laboratory
                            Battelle Memorial Institute

             NWChem is an open-source computational chemistry package
                        distributed under the terms of the
                      Educational Community License (ECL) 2.0
             A copy of the license is included with this distribution
                              in the LICENSE.TXT file

                                  ACKNOWLEDGMENT
                                  --------------

            This software and its documentation were developed at the
            EMSL at Pacific Northwest National Laboratory, a multiprogram
            national laboratory, operated for the U.S. Department of Energy
            by Battelle under Contract Number DE-AC05-76RL01830. Support
            for this work was provided by the Department of Energy Office
            of Biological and Environmental Research, Office of Basic
            Energy Sciences, and the Office of Advanced Scientific Computing.


           Job information
           ---------------

    hostname        = g25
    program         = /cm/shared/NWChem/bin/nwchem
    date            = Wed Jun 29 13:36:37 2016

    compiled        = Wed_Jan_27_15:20:39_2016
    source          = /cm/shared/nwchem-6.6
    nwchem branch   = 6.6
    nwchem revision = 27746
    ga revision     = 10594
    input           = /scratch/owengray/water_TDC_9/water_TDC_9.nw
    prefix          = water_TDC_9.
    data base       = ./water_TDC_9.db
    status          = startup
    nproc           =       20
    time left       =     -1s



           Memory information
           ------------------

    heap     =  210617852 doubles =   1606.9 Mbytes
    stack    =  210617857 doubles =   1606.9 Mbytes
    global   =  421235712 doubles =   3213.8 Mbytes (distinct from heap & stack)
    total    =  842471421 doubles =   6427.5 Mbytes
    verify   = yes
    hardfail = no 


           Directory information
           ---------------------

  0 permanent = .
  0 scratch   = /scratch/owengray/water_TDC_9/




                                NWChem Input Module
                                -------------------


                water TDC calculation number 9 in STO-3G basis set
                --------------------------------------------------
 Turning off AUTOSYM since
 SYMMETRY directive was detected!



                             Geometry "geometry" -> ""
                             -------------------------

 Output coordinates in a.u. (scale by  1.000000000 to convert to a.u.)

  No.       Tag          Charge          X              Y              Z
 ---- ---------------- ---------- -------------- -------------- --------------
    1 H                    1.0000     0.00000000     0.00000000    -1.00000000
    2 O                    8.0000     0.00000000     0.00000000     0.00000000
    3 H                    1.0000     0.00000000     1.00000000     0.00000000

      Atomic Mass 
      ----------- 

      H                  1.007825
      O                 15.994910


 Effective nuclear repulsion energy (a.u.)      16.7071067812

            Nuclear Dipole moment (a.u.) 
            ----------------------------
        X                 Y               Z
 ---------------- ---------------- ----------------
     0.0000000000     1.0000000000    -1.0000000000


            XYZ format geometry
            -------------------
     3
 geometry
 H                     0.00000000     0.00000000    -0.52917725
 O                     0.00000000     0.00000000     0.00000000
 H                     0.00000000     0.52917725     0.00000000

 ==============================================================================
                                internuclear distances
 ------------------------------------------------------------------------------
       center one      |      center two      | atomic units |       a.u.
 ------------------------------------------------------------------------------
    2 O                |   1 H                |     1.00000  |     1.00000
    3 H                |   2 O                |     1.00000  |     1.00000
 ------------------------------------------------------------------------------
                         number of included internuclear distances:          2
 ==============================================================================



 ==============================================================================
                                 internuclear angles
 ------------------------------------------------------------------------------
        center 1       |       center 2       |       center 3       |  degrees
 ------------------------------------------------------------------------------
    1 H                |   2 O                |   3 H                |    90.00
 ------------------------------------------------------------------------------
                            number of included internuclear angles:          1
 ==============================================================================



  library name resolved from: environment
  library file name is: </cm/shared/NWChem/data/libraries/>
  
                      Basis "ao basis" -> "" (cartesian)
                      -----
  O (Oxygen)
  ----------
            Exponent  Coefficients 
       -------------- ---------------------------------------------------------
  1 S  1.30709320E+02  0.154329
  1 S  2.38088610E+01  0.535328
  1 S  6.44360830E+00  0.444635

  2 S  5.03315130E+00 -0.099967
  2 S  1.16959610E+00  0.399513
  2 S  3.80389000E-01  0.700115

  3 P  5.03315130E+00  0.155916
  3 P  1.16959610E+00  0.607684
  3 P  3.80389000E-01  0.391957

  H (Hydrogen)
  ------------
            Exponent  Coefficients 
       -------------- ---------------------------------------------------------
  1 S  3.42525091E+00  0.154329
  1 S  6.23913730E-01  0.535328
  1 S  1.68855400E-01  0.444635



 Summary of "ao basis" -> "" (cartesian)
 ------------------------------------------------------------------------------
       Tag                 Description            Shells   Functions and Types
 ---------------- ------------------------------  ------  ---------------------
 O                           STO-3G                  3        5   2s1p
 H                           STO-3G                  1        1   1s




                           NWChem Geometry Optimization
                           ----------------------------




                water TDC calculation number 9 in STO-3G basis set


 maximum gradient threshold         (gmax) =   0.000450
 rms gradient threshold             (grms) =   0.000300
 maximum cartesian step threshold   (xmax) =   0.001800
 rms cartesian step threshold       (xrms) =   0.001200
 fixed trust radius                (trust) =   0.300000
 maximum step size to saddle      (sadstp) =   0.100000
 energy precision                  (eprec) =   1.0D-07
 maximum number of steps          (nptopt) =   20
 initial hessian option           (inhess) =    0
 line search option               (linopt) =    1
 hessian update option            (modupd) =    1
 saddle point option              (modsad) =    0
 initial eigen-mode to follow     (moddir) =    0
 initial variable to follow       (vardir) =    0
 follow first negative mode     (firstneg) =    T
 apply conjugacy                    (opcg) =    F
 source of zmatrix                         =           


          -------------------
          Energy Minimization
          -------------------


 Using diagonal initial Hessian 

          --------
          Step   0
          --------


                         Geometry "geometry" -> "geometry"
                         ---------------------------------

 Output coordinates in a.u. (scale by  1.000000000 to convert to a.u.)

  No.       Tag          Charge          X              Y              Z
 ---- ---------------- ---------- -------------- -------------- --------------
    1 H                    1.0000     0.00000000     0.00000000    -1.00000000
    2 O                    8.0000     0.00000000     0.00000000     0.00000000
    3 H                    1.0000     0.00000000     1.00000000     0.00000000

      Atomic Mass 
      ----------- 

      H                  1.007825
      O                 15.994910


 Effective nuclear repulsion energy (a.u.)      16.7071067812

            Nuclear Dipole moment (a.u.) 
            ----------------------------
        X                 Y               Z
 ---------------- ---------------- ----------------
     0.0000000000     1.0000000000    -1.0000000000

                                 NWChem SCF Module
                                 -----------------


                water TDC calculation number 9 in STO-3G basis set



  ao basis        = "ao basis"
  functions       =     7
  atoms           =     3
  closed shells   =     5
  open shells     =     0
  charge          =   0.00
  wavefunction    = RHF 
  input vectors   = atomic
  output vectors  = ./water_TDC_9.movecs
  use symmetry    = F
  symmetry adapt  = F


 Summary of "ao basis" -> "ao basis" (cartesian)
 ------------------------------------------------------------------------------
       Tag                 Description            Shells   Functions and Types
 ---------------- ------------------------------  ------  ---------------------
 O                           STO-3G                  3        5   2s1p
 H                           STO-3G                  1        1   1s



 Forming initial guess at       0.1s


      Superposition of Atomic Density Guess
      -------------------------------------

 Sum of atomic energies:         -74.71095592

      Non-variational initial energy
      ------------------------------

 Total energy =     -75.484527
 1-e energy   =    -132.303173
 2-e energy   =      40.111539
 HOMO         =      -0.485906
 LUMO         =       0.924689


 Starting SCF solution at       0.1s



 ----------------------------------------------
         Quadratically convergent ROHF

 Convergence threshold     :          1.000E-04
 Maximum no. of iterations :           30
 Final Fock-matrix accuracy:          1.000E-07
 ----------------------------------------------


              iter       energy          gnorm     gmax       time
             ----- ------------------- --------- --------- --------
                 1      -73.4400842446  5.10D-01  4.93D-01      0.1
                 2      -73.4551805934  7.06D-02  6.02D-02      0.1
                 3      -73.4554947781  3.85D-03  2.61D-03      0.1
                 4      -73.4554959406  1.30D-06  1.03D-06      0.1


       Final RHF  results 
       ------------------ 

         Total SCF energy =    -73.455495940593
      One-electron energy =   -132.081754480634
      Two-electron energy =     41.919151758855
 Nuclear repulsion energy =     16.707106781187

        Time for solution =      0.0s


             Final eigenvalues
             -----------------

              1      
    1  -20.4222
    2   -1.7135
    3   -0.8691
    4   -0.5853
    5   -0.5317
    6    0.9656
    7    1.4366

                       ROHF Final Molecular Orbital Analysis
                       -------------------------------------

 Vector    2  Occ=2.000000D+00  E=-1.713508D+00
              MO Center= -4.3D-17,  2.0D-01, -2.0D-01, r^2= 3.7D-01
   Bfn.  Coefficient  Atom+Function         Bfn.  Coefficient  Atom+Function  
  ----- ------------  ---------------      ----- ------------  ---------------
     3      0.844140  2 O  s                  5      0.291097  2 O  py         
     6     -0.291097  2 O  pz                 2     -0.234512  2 O  s          

 Vector    3  Occ=2.000000D+00  E=-8.690931D-01
              MO Center=  8.1D-31,  8.3D-02, -8.3D-02, r^2= 5.4D-01
   Bfn.  Coefficient  Atom+Function         Bfn.  Coefficient  Atom+Function  
  ----- ------------  ---------------      ----- ------------  ---------------
     5      0.489070  2 O  py                 6      0.489070  2 O  pz         
     1     -0.439128  1 H  s                  7      0.439128  3 H  s          

 Vector    4  Occ=2.000000D+00  E=-5.852533D-01
              MO Center=  1.9D-15, -1.9D-01,  1.9D-01, r^2= 3.5D-01
   Bfn.  Coefficient  Atom+Function         Bfn.  Coefficient  Atom+Function  
  ----- ------------  ---------------      ----- ------------  ---------------
     5      0.608353  2 O  py                 6     -0.608353  2 O  pz         
     3     -0.542598  2 O  s          

 Vector    5  Occ=2.000000D+00  E=-5.316579D-01
              MO Center= -1.7D-15, -5.8D-30,  6.7D-30, r^2= 4.2D-01
   Bfn.  Coefficient  Atom+Function         Bfn.  Coefficient  Atom+Function  
  ----- ------------  ---------------      ----- ------------  ---------------
     4      1.000000  2 O  px         

 Vector    6  Occ=0.000000D+00  E= 9.655932D-01
              MO Center= -2.5D-19,  3.7D-01, -3.7D-01, r^2= 1.2D+00
   Bfn.  Coefficient  Atom+Function         Bfn.  Coefficient  Atom+Function  
  ----- ------------  ---------------      ----- ------------  ---------------
     3      2.256464  2 O  s                  1     -1.427018  1 H  s          
     7     -1.427018  3 H  s                  5      0.679964  2 O  py         
     6     -0.679964  2 O  pz         

 Vector    7  Occ=0.000000D+00  E= 1.436649D+00
              MO Center=  1.8D-32,  2.1D-01, -2.1D-01, r^2= 7.9D-01
   Bfn.  Coefficient  Atom+Function         Bfn.  Coefficient  Atom+Function  
  ----- ------------  ---------------      ----- ------------  ---------------
     1      1.829444  1 H  s                  7     -1.829444  3 H  s          
     5      0.992034  2 O  py                 6      0.992034  2 O  pz         


 center of mass
 --------------
 x =   0.00000000 y =   0.05595745 z =  -0.05595745

 moments of inertia (a.u.)
 ------------------
           1.902859367102           0.000000000000           0.000000000000
           0.000000000000           0.951429683551          -0.056395316449
           0.000000000000          -0.056395316449           0.951429683551

  Mulliken analysis of the total density
  --------------------------------------

    Atom       Charge   Shell Charges
 -----------   ------   -------------------------------------------------------
    1 H    1     0.40   0.40
    2 O    8     9.20   2.00  1.95  5.25
    3 H    1     0.40   0.40

       Multipole analysis of the density wrt the origin
       ------------------------------------------------

     L   x y z        total         open         nuclear
     -   - - -        -----         ----         -------
     0   0 0 0     -0.000000      0.000000     10.000000

     1   1 0 0     -0.000000      0.000000      0.000000
     1   0 1 0      0.635203      0.000000      1.000000
     1   0 0 1     -0.635203      0.000000     -1.000000

     2   2 0 0     -4.175666      0.000000      0.000000
     2   1 1 0      0.000000      0.000000      0.000000
     2   1 0 1     -0.000000      0.000000      0.000000
     2   0 2 0     -3.557591      0.000000      1.000000
     2   0 1 1     -0.073933      0.000000      0.000000
     2   0 0 2     -3.557591      0.000000      1.000000

                              NWChem Gradients Module
                              -----------------------


                water TDC calculation number 9 in STO-3G basis set


  wavefunction    =   RHF     



                         RHF ENERGY GRADIENTS

    atom               coordinates                        gradient
                 x          y          z           x          y          z
   1 H       0.000000   0.000000  -1.000000    0.000000   0.217344   3.038747
   2 O       0.000000   0.000000   0.000000   -0.000000   2.821403  -2.821403
   3 H       0.000000   1.000000   0.000000   -0.000000  -3.038747  -0.217344

                 ----------------------------------------
                 |  Time  |  1-e(secs)   |  2-e(secs)   |
                 ----------------------------------------
                 |  CPU   |       0.00   |       0.00   |
                 ----------------------------------------
                 |  WALL  |       0.00   |       0.00   |
                 ----------------------------------------

@ Step       Energy      Delta E   Gmax     Grms     Xrms     Xmax   Walltime
@ ---- ---------------- -------- -------- -------- -------- -------- --------
@    0     -73.45549594  0.0D+00  3.03875  1.95741  0.00000  0.00000      0.2
                                                                    

 Restricting large step in mode    1 eval= 4.2D-01 step= 1.5D+00 new= 3.0D-01
 Restricting large step in mode    3 eval= 1.7D+00 step= 3.3D+00 new= 3.0D-01
                                 NWChem SCF Module
                                 -----------------


                water TDC calculation number 9 in STO-3G basis set



  ao basis        = "ao basis"
  functions       =     7
  atoms           =     3
  closed shells   =     5
  open shells     =     0
  charge          =   0.00
  wavefunction    = RHF 
  input vectors   = ./water_TDC_9.movecs
  output vectors  = ./water_TDC_9.movecs
  use symmetry    = F
  symmetry adapt  = F


 Summary of "ao basis" -> "ao basis" (cartesian)
 ------------------------------------------------------------------------------
       Tag                 Description            Shells   Functions and Types
 ---------------- ------------------------------  ------  ---------------------
 O                           STO-3G                  3        5   2s1p
 H                           STO-3G                  1        1   1s



 Forming initial guess at       0.2s


 Loading old vectors from job with title :

water TDC calculation number 9 in STO-3G basis set


 Starting SCF solution at       0.2s



 ----------------------------------------------
         Quadratically convergent ROHF

 Convergence threshold     :          1.000E-04
 Maximum no. of iterations :           30
 Final Fock-matrix accuracy:          1.000E-07
 ----------------------------------------------


              iter       energy          gnorm     gmax       time
             ----- ------------------- --------- --------- --------
                 1      -74.3978976731  1.46D+00  1.05D+00      0.1
                 2      -74.5414697435  4.80D-01  3.75D-01      0.1
                 3      -74.5522692580  9.38D-02  6.77D-02      0.1
                 4      -74.5526785759  7.55D-03  6.24D-03      0.1
                 5      -74.5526835474  7.97D-06  7.46D-06      0.1


       Final RHF  results 
       ------------------ 

         Total SCF energy =    -74.552683547385
      One-electron energy =   -126.619854581204
      Two-electron energy =     39.907251605295
 Nuclear repulsion energy =     12.159919428524

        Time for solution =      0.0s


             Final eigenvalues
             -----------------

              1      
    1  -20.2627
    2   -1.5247
    3   -0.6011
    4   -0.5749
    5   -0.4393
    6    0.7649
    7    1.0369

                       ROHF Final Molecular Orbital Analysis
                       -------------------------------------

 Vector    2  Occ=2.000000D+00  E=-1.524670D+00
              MO Center= -9.9D-19,  1.1D-01, -1.1D-01, r^2= 4.5D-01
   Bfn.  Coefficient  Atom+Function         Bfn.  Coefficient  Atom+Function  
  ----- ------------  ---------------      ----- ------------  ---------------
     3      0.703123  2 O  s                  2     -0.213707  2 O  s          
     5      0.207792  2 O  py                 6     -0.207792  2 O  pz         
     1      0.164836  1 H  s                  7      0.164837  3 H  s          

 Vector    3  Occ=2.000000D+00  E=-6.010908D-01
              MO Center= -1.9D-24,  9.7D-03, -9.7D-03, r^2= 5.9D-01
   Bfn.  Coefficient  Atom+Function         Bfn.  Coefficient  Atom+Function  
  ----- ------------  ---------------      ----- ------------  ---------------
     5     -0.511986  2 O  py                 6     -0.511982  2 O  pz         
     1      0.495780  1 H  s                  7     -0.495780  3 H  s          

 Vector    4  Occ=2.000000D+00  E=-5.749068D-01
              MO Center=  3.3D-18, -2.3D-01,  2.3D-01, r^2= 5.1D-01
   Bfn.  Coefficient  Atom+Function         Bfn.  Coefficient  Atom+Function  
  ----- ------------  ---------------      ----- ------------  ---------------
     3      0.778460  2 O  s                  5     -0.467387  2 O  py         
     6      0.467390  2 O  pz                 1     -0.240416  1 H  s          
     7     -0.240413  3 H  s                  2     -0.150896  2 O  s          

 Vector    5  Occ=2.000000D+00  E=-4.392742D-01
              MO Center= -1.6D-18, -1.3D-01,  1.3D-01, r^2= 4.2D-01
   Bfn.  Coefficient  Atom+Function         Bfn.  Coefficient  Atom+Function  
  ----- ------------  ---------------      ----- ------------  ---------------
     4      1.000000  2 O  px         

 Vector    6  Occ=0.000000D+00  E= 7.649288D-01
              MO Center= -7.7D-19,  2.8D-01, -2.8D-01, r^2= 8.6D-01
   Bfn.  Coefficient  Atom+Function         Bfn.  Coefficient  Atom+Function  
  ----- ------------  ---------------      ----- ------------  ---------------
     3      1.178167  2 O  s                  1     -0.888099  1 H  s          
     7     -0.888084  3 H  s                  5      0.715289  2 O  py         
     6     -0.715300  2 O  pz         

 Vector    7  Occ=0.000000D+00  E= 1.036905D+00
              MO Center=  2.2D-23,  2.1D-01, -2.1D-01, r^2= 7.6D-01
   Bfn.  Coefficient  Atom+Function         Bfn.  Coefficient  Atom+Function  
  ----- ------------  ---------------      ----- ------------  ---------------
     1      1.387791  1 H  s                  7     -1.387807  3 H  s          
     5      0.668711  2 O  py                 6      0.668697  2 O  pz         


 center of mass
 --------------
 x =  -0.00000000 y =  -0.14701663 z =   0.14701863

 moments of inertia (a.u.)
 ------------------
           3.615383063568          -0.000000000000           0.000000000000
          -0.000000000000           1.807698278718           0.876537982168
           0.000000000000           0.876537982168           1.807684784850

  Mulliken analysis of the total density
  --------------------------------------

    Atom       Charge   Shell Charges
 -----------   ------   -------------------------------------------------------
    1 H    1     0.68   0.68
    2 O    8     8.65   2.00  1.91  4.74
    3 H    1     0.68   0.68

       Multipole analysis of the density wrt the origin
       ------------------------------------------------

     L   x y z        total         open         nuclear
     -   - - -        -----         ----         -------
     0   0 0 0     -0.000000      0.000000     10.000000

     1   1 0 0     -0.000000      0.000000     -0.000000
     1   0 1 0      0.675333      0.000000     -0.707453
     1   0 0 1     -0.675334      0.000000      0.707469

     2   2 0 0     -4.380219      0.000000      0.000000
     2   1 1 0      0.000000      0.000000      0.000000
     2   1 0 1      0.000000      0.000000     -0.000000
     2   0 2 0     -3.906862      0.000000      1.711614
     2   0 1 1     -0.194215      0.000000     -0.787698
     2   0 0 2     -3.906862      0.000000      1.711629

 Line search: 
     step= 1.00 grad=-1.9D+00 hess= 8.4D-01 energy=    -74.552684 mode=downhill
 new step= 1.15                   predicted energy=    -74.572172

          --------
          Step   1
          --------


                         Geometry "geometry" -> "geometry"
                         ---------------------------------

 Output coordinates in a.u. (scale by  1.000000000 to convert to a.u.)

  No.       Tag          Charge          X              Y              Z
 ---- ---------------- ---------- -------------- -------------- --------------
    1 H                    1.0000    -0.00000000     0.16287347    -1.11817991
    2 O                    8.0000    -0.00000000    -0.28105061     0.28105338
    3 H                    1.0000     0.00000000     1.11817714    -0.16287347

      Atomic Mass 
      ----------- 

      H                  1.007825
      O                 15.994910


 Effective nuclear repulsion energy (a.u.)      11.6396455372

            Nuclear Dipole moment (a.u.) 
            ----------------------------
        X                 Y               Z
 ---------------- ---------------- ----------------
    -0.0000000000    -0.9673542828     0.9673736529

                                 NWChem SCF Module
                                 -----------------


                water TDC calculation number 9 in STO-3G basis set



  ao basis        = "ao basis"
  functions       =     7
  atoms           =     3
  closed shells   =     5
  open shells     =     0
  charge          =   0.00
  wavefunction    = RHF 
  input vectors   = ./water_TDC_9.movecs
  output vectors  = ./water_TDC_9.movecs
  use symmetry    = F
  symmetry adapt  = F


 Summary of "ao basis" -> "ao basis" (cartesian)
 ------------------------------------------------------------------------------
       Tag                 Description            Shells   Functions and Types
 ---------------- ------------------------------  ------  ---------------------
 O                           STO-3G                  3        5   2s1p
 H                           STO-3G                  1        1   1s



 Forming initial guess at       0.2s


 Loading old vectors from job with title :

water TDC calculation number 9 in STO-3G basis set


 Starting SCF solution at       0.2s



 ----------------------------------------------
         Quadratically convergent ROHF

 Convergence threshold     :          1.000E-04
 Maximum no. of iterations :           30
 Final Fock-matrix accuracy:          1.000E-07
 ----------------------------------------------


              iter       energy          gnorm     gmax       time
             ----- ------------------- --------- --------- --------
                 1      -74.6119096755  1.70D-01  1.17D-01      0.2
                 2      -74.6139989555  4.11D-02  3.24D-02      0.2
                 3      -74.6142280794  1.01D-03  9.40D-04      0.2
                 4      -74.6142281604  2.98D-06  2.89D-06      0.2


       Final RHF  results 
       ------------------ 

         Total SCF energy =    -74.614228160369
      One-electron energy =   -125.863458490855
      Two-electron energy =     39.609584793276
 Nuclear repulsion energy =     11.639645537209

        Time for solution =      0.0s


             Final eigenvalues
             -----------------

              1      
    1  -20.2541
    2   -1.4904
    3   -0.5777
    4   -0.5701
    5   -0.4299
    6    0.7223
    7    0.9898

                       ROHF Final Molecular Orbital Analysis
                       -------------------------------------

 Vector    2  Occ=2.000000D+00  E=-1.490432D+00
              MO Center= -7.1D-19,  9.7D-02, -9.7D-02, r^2= 4.7D-01
   Bfn.  Coefficient  Atom+Function         Bfn.  Coefficient  Atom+Function  
  ----- ------------  ---------------      ----- ------------  ---------------
     3      0.702070  2 O  s                  2     -0.212537  2 O  s          
     5      0.191892  2 O  py                 6     -0.191892  2 O  pz         
     1      0.174626  1 H  s                  7      0.174627  3 H  s          

 Vector    3  Occ=2.000000D+00  E=-5.776528D-01
              MO Center=  3.1D-18, -2.2D-01,  2.2D-01, r^2= 5.6D-01
   Bfn.  Coefficient  Atom+Function         Bfn.  Coefficient  Atom+Function  
  ----- ------------  ---------------      ----- ------------  ---------------
     3      0.789788  2 O  s                  5     -0.446703  2 O  py         
     6      0.446694  2 O  pz                 1     -0.263916  1 H  s          
     7     -0.263925  3 H  s                  2     -0.153252  2 O  s          

 Vector    4  Occ=2.000000D+00  E=-5.701130D-01
              MO Center=  6.6D-24, -7.6D-03,  7.6D-03, r^2= 6.0D-01
   Bfn.  Coefficient  Atom+Function         Bfn.  Coefficient  Atom+Function  
  ----- ------------  ---------------      ----- ------------  ---------------
     5     -0.522908  2 O  py                 6     -0.522915  2 O  pz         
     1      0.490409  1 H  s                  7     -0.490403  3 H  s          

 Vector    5  Occ=2.000000D+00  E=-4.298501D-01
              MO Center= -1.5D-18, -1.5D-01,  1.5D-01, r^2= 4.2D-01
   Bfn.  Coefficient  Atom+Function         Bfn.  Coefficient  Atom+Function  
  ----- ------------  ---------------      ----- ------------  ---------------
     4      1.000000  2 O  px         

 Vector    6  Occ=0.000000D+00  E= 7.223200D-01
              MO Center= -8.6D-19,  2.6D-01, -2.6D-01, r^2= 8.4D-01
   Bfn.  Coefficient  Atom+Function         Bfn.  Coefficient  Atom+Function  
  ----- ------------  ---------------      ----- ------------  ---------------
     3      1.060921  2 O  s                  1     -0.827128  1 H  s          
     7     -0.827111  3 H  s                  5      0.713498  2 O  py         
     6     -0.713510  2 O  pz         

 Vector    7  Occ=0.000000D+00  E= 9.898150D-01
              MO Center=  2.9D-23,  2.2D-01, -2.2D-01, r^2= 7.7D-01
   Bfn.  Coefficient  Atom+Function         Bfn.  Coefficient  Atom+Function  
  ----- ------------  ---------------      ----- ------------  ---------------
     1      1.358721  1 H  s                  7     -1.358737  3 H  s          
     5      0.634046  2 O  py                 6      0.634031  2 O  pz         


 center of mass
 --------------
 x =  -0.00000000 y =  -0.17791254 z =   0.17791484

 moments of inertia (a.u.)
 ------------------
           3.960381118383          -0.000000000000           0.000000000000
          -0.000000000000           1.980198738692           1.060441664186
           0.000000000000           1.060441664186           1.980182379692

  Mulliken analysis of the total density
  --------------------------------------

    Atom       Charge   Shell Charges
 -----------   ------   -------------------------------------------------------
    1 H    1     0.71   0.71
    2 O    8     8.59   2.00  1.91  4.68
    3 H    1     0.71   0.71

       Multipole analysis of the density wrt the origin
       ------------------------------------------------

     L   x y z        total         open         nuclear
     -   - - -        -----         ----         -------
     0   0 0 0     -0.000000      0.000000     10.000000

     1   1 0 0     -0.000000      0.000000     -0.000000
     1   0 1 0      0.663334      0.000000     -0.967354
     1   0 0 1     -0.663335      0.000000      0.967374

     2   2 0 0     -4.413346      0.000000      0.000000
     2   1 1 0      0.000000      0.000000      0.000000
     2   1 0 1      0.000000      0.000000     -0.000000
     2   0 2 0     -3.954492      0.000000      1.908763
     2   0 1 1     -0.202023      0.000000     -0.996165
     2   0 0 2     -3.954491      0.000000      1.908782

                              NWChem Gradients Module
                              -----------------------


                water TDC calculation number 9 in STO-3G basis set


  wavefunction    =   RHF     



                         RHF ENERGY GRADIENTS

    atom               coordinates                        gradient
                 x          y          z           x          y          z
   1 H      -0.000000   0.162873  -1.118180    0.000000   0.177587   0.701071
   2 O      -0.000000  -0.281051   0.281053   -0.000000   0.523493  -0.523488
   3 H       0.000000   1.118177  -0.162873   -0.000000  -0.701080  -0.177583

                 ----------------------------------------
                 |  Time  |  1-e(secs)   |  2-e(secs)   |
                 ----------------------------------------
                 |  CPU   |       0.00   |       0.00   |
                 ----------------------------------------
                 |  WALL  |       0.00   |       0.00   |
                 ----------------------------------------

  Step       Energy      Delta E   Gmax     Grms     Xrms     Xmax   Walltime
  ---- ---------------- -------- -------- -------- -------- -------- --------
@    1     -74.61422816 -1.2D+00  0.70108  0.42087  0.16295  0.28105      0.3
                                                                    

 Restricting large step in mode    1 eval= 4.3D-01 step= 5.9D-01 new= 3.0D-01
                                 NWChem SCF Module
                                 -----------------


                water TDC calculation number 9 in STO-3G basis set



  ao basis        = "ao basis"
  functions       =     7
  atoms           =     3
  closed shells   =     5
  open shells     =     0
  charge          =   0.00
  wavefunction    = RHF 
  input vectors   = ./water_TDC_9.movecs
  output vectors  = ./water_TDC_9.movecs
  use symmetry    = F
  symmetry adapt  = F


 Summary of "ao basis" -> "ao basis" (cartesian)
 ------------------------------------------------------------------------------
       Tag                 Description            Shells   Functions and Types
 ---------------- ------------------------------  ------  ---------------------
 O                           STO-3G                  3        5   2s1p
 H                           STO-3G                  1        1   1s



 Forming initial guess at       0.3s


 Loading old vectors from job with title :

water TDC calculation number 9 in STO-3G basis set


 Starting SCF solution at       0.3s



 ----------------------------------------------
         Quadratically convergent ROHF

 Convergence threshold     :          1.000E-04
 Maximum no. of iterations :           30
 Final Fock-matrix accuracy:          1.000E-07
 ----------------------------------------------


              iter       energy          gnorm     gmax       time
             ----- ------------------- --------- --------- --------
                 1      -74.7746732417  1.59D-01  1.53D-01      0.2
                 2      -74.7781197299  4.47D-02  4.01D-02      0.2
                 3      -74.7782863591  6.60D-04  5.94D-04      0.2
                 4      -74.7782863708  2.01D-06  1.79D-06      0.2


       Final RHF  results 
       ------------------ 

         Total SCF energy =    -74.778286370794
      One-electron energy =   -125.362946268184
      Two-electron energy =     39.405017206428
 Nuclear repulsion energy =     11.179642690961

        Time for solution =      0.0s


             Final eigenvalues
             -----------------

              1      
    1  -20.2560
    2   -1.4298
    3   -0.6238
    4   -0.5419
    5   -0.4249
    6    0.7611
    7    0.9062

                       ROHF Final Molecular Orbital Analysis
                       -------------------------------------

 Vector    2  Occ=2.000000D+00  E=-1.429847D+00
              MO Center= -4.6D-19,  8.5D-02, -8.5D-02, r^2= 4.8D-01
   Bfn.  Coefficient  Atom+Function         Bfn.  Coefficient  Atom+Function  
  ----- ------------  ---------------      ----- ------------  ---------------
     3      0.751480  2 O  s                  2     -0.221161  2 O  s          
     5      0.172666  2 O  py                 6     -0.172667  2 O  pz         
     1      0.160507  1 H  s                  7      0.160506  3 H  s          

 Vector    3  Occ=2.000000D+00  E=-6.238056D-01
              MO Center=  1.7D-24,  3.7D-02, -3.7D-02, r^2= 6.5D-01
   Bfn.  Coefficient  Atom+Function         Bfn.  Coefficient  Atom+Function  
  ----- ------------  ---------------      ----- ------------  ---------------
     5     -0.478124  2 O  py                 6     -0.478127  2 O  pz         
     1      0.471316  1 H  s                  7     -0.471316  3 H  s          

 Vector    4  Occ=2.000000D+00  E=-5.418633D-01
              MO Center=  3.0D-18, -2.1D-01,  2.1D-01, r^2= 5.3D-01
   Bfn.  Coefficient  Atom+Function         Bfn.  Coefficient  Atom+Function  
  ----- ------------  ---------------      ----- ------------  ---------------
     3      0.697931  2 O  s                  5     -0.500032  2 O  py         
     6      0.500029  2 O  pz                 1     -0.244052  1 H  s          
     7     -0.244055  3 H  s          

 Vector    5  Occ=2.000000D+00  E=-4.249440D-01
              MO Center= -1.5D-18, -1.3D-01,  1.3D-01, r^2= 4.2D-01
   Bfn.  Coefficient  Atom+Function         Bfn.  Coefficient  Atom+Function  
  ----- ------------  ---------------      ----- ------------  ---------------
     4      1.000000  2 O  px         

 Vector    6  Occ=0.000000D+00  E= 7.611485D-01
              MO Center= -1.1D-18,  2.8D-01, -2.8D-01, r^2= 9.1D-01
   Bfn.  Coefficient  Atom+Function         Bfn.  Coefficient  Atom+Function  
  ----- ------------  ---------------      ----- ------------  ---------------
     3      1.111549  2 O  s                  1     -0.876759  1 H  s          
     7     -0.876792  3 H  s                  5      0.659936  2 O  py         
     6     -0.659912  2 O  pz         

 Vector    7  Occ=0.000000D+00  E= 9.062061D-01
              MO Center= -7.0D-23,  1.8D-01, -1.8D-01, r^2= 8.3D-01
   Bfn.  Coefficient  Atom+Function         Bfn.  Coefficient  Atom+Function  
  ----- ------------  ---------------      ----- ------------  ---------------
     1      1.128802  1 H  s                  7     -1.128768  3 H  s          
     5      0.690086  2 O  py                 6      0.690111  2 O  pz         


 center of mass
 --------------
 x =  -0.00000000 y =  -0.14244363 z =   0.14244170

 moments of inertia (a.u.)
 ------------------
           4.243171706904          -0.000000000000          -0.000000000000
          -0.000000000000           2.121576837656           0.511756815742
          -0.000000000000           0.511756815742           2.121594869248

  Mulliken analysis of the total density
  --------------------------------------

    Atom       Charge   Shell Charges
 -----------   ------   -------------------------------------------------------
    1 H    1     0.73   0.73
    2 O    8     8.54   2.00  1.88  4.67
    3 H    1     0.73   0.73

       Multipole analysis of the density wrt the origin
       ------------------------------------------------

     L   x y z        total         open         nuclear
     -   - - -        -----         ----         -------
     0   0 0 0     -0.000000      0.000000     10.000000

     1   1 0 0     -0.000000      0.000000     -0.000000
     1   0 1 0      0.614161      0.000000     -0.668984
     1   0 0 1     -0.614162      0.000000      0.668968

     2   2 0 0     -4.422538      0.000000      0.000000
     2   1 1 0      0.000000      0.000000      0.000000
     2   1 0 1      0.000000      0.000000      0.000000
     2   0 2 0     -3.858595      0.000000      2.020295
     2   0 1 1     -0.037298      0.000000     -0.422956
     2   0 0 2     -3.858596      0.000000      2.020276

 Line search: 
     step= 1.00 grad=-2.0D-01 hess= 4.0D-02 energy=    -74.778286 mode=downhill
 new step= 2.55                   predicted energy=    -74.874050

          --------
          Step   2
          --------


                         Geometry "geometry" -> "geometry"
                         ---------------------------------

 Output coordinates in a.u. (scale by  1.000000000 to convert to a.u.)

  No.       Tag          Charge          X              Y              Z
 ---- ---------------- ---------- -------------- -------------- --------------
    1 H                    1.0000    -0.00000000    -0.28403638    -1.45658496
    2 O                    8.0000    -0.00000000    -0.17256316     0.17255299
    3 H                    1.0000     0.00000000     1.45659954     0.28403197

      Atomic Mass 
      ----------- 

      H                  1.007825
      O                 15.994910


 Effective nuclear repulsion energy (a.u.)      10.2043961044

            Nuclear Dipole moment (a.u.) 
            ----------------------------
        X                 Y               Z
 ---------------- ---------------- ----------------
    -0.0000000000    -0.2079421366     0.2078709240

                                 NWChem SCF Module
                                 -----------------


                water TDC calculation number 9 in STO-3G basis set



  ao basis        = "ao basis"
  functions       =     7
  atoms           =     3
  closed shells   =     5
  open shells     =     0
  charge          =   0.00
  wavefunction    = RHF 
  input vectors   = ./water_TDC_9.movecs
  output vectors  = ./water_TDC_9.movecs
  use symmetry    = F
  symmetry adapt  = F


 Summary of "ao basis" -> "ao basis" (cartesian)
 ------------------------------------------------------------------------------
       Tag                 Description            Shells   Functions and Types
 ---------------- ------------------------------  ------  ---------------------
 O                           STO-3G                  3        5   2s1p
 H                           STO-3G                  1        1   1s



 Forming initial guess at       0.3s


 Loading old vectors from job with title :

water TDC calculation number 9 in STO-3G basis set


 Starting SCF solution at       0.3s



 ----------------------------------------------
         Quadratically convergent ROHF

 Convergence threshold     :          1.000E-04
 Maximum no. of iterations :           30
 Final Fock-matrix accuracy:          1.000E-07
 ----------------------------------------------


              iter       energy          gnorm     gmax       time
             ----- ------------------- --------- --------- --------
                 1      -74.9174359113  1.75D-01  1.25D-01      0.3
                 2      -74.9199274807  3.93D-02  3.08D-02      0.3
                 3      -74.9199995511  8.52D-04  6.25D-04      0.3
                 4      -74.9199996202  2.08D-06  1.74D-06      0.3


       Final RHF  results 
       ------------------ 

         Total SCF energy =    -74.919999620197
      One-electron energy =   -124.013140358593
      Two-electron energy =     38.888744633992
 Nuclear repulsion energy =     10.204396104403

        Time for solution =      0.0s


             Final eigenvalues
             -----------------

              1      
    1  -20.2421
    2   -1.3333
    3   -0.6566
    4   -0.4806
    5   -0.4052
    6    0.7117
    7    0.8421

                       ROHF Final Molecular Orbital Analysis
                       -------------------------------------

 Vector    2  Occ=2.000000D+00  E=-1.333336D+00
              MO Center=  3.8D-19,  7.0D-02, -7.0D-02, r^2= 5.2D-01
   Bfn.  Coefficient  Atom+Function         Bfn.  Coefficient  Atom+Function  
  ----- ------------  ---------------      ----- ------------  ---------------
     3      0.798377  2 O  s                  2     -0.228939  2 O  s          
     1      0.160608  1 H  s                  7      0.160603  3 H  s          

 Vector    3  Occ=2.000000D+00  E=-6.565873D-01
              MO Center=  2.9D-24,  7.6D-02, -7.6D-02, r^2= 7.4D-01
   Bfn.  Coefficient  Atom+Function         Bfn.  Coefficient  Atom+Function  
  ----- ------------  ---------------      ----- ------------  ---------------
     1      0.443982  1 H  s                  7     -0.443984  3 H  s          
     5     -0.439629  2 O  py                 6     -0.439637  2 O  pz         

 Vector    4  Occ=2.000000D+00  E=-4.806122D-01
              MO Center=  2.5D-18, -1.6D-01,  1.6D-01, r^2= 5.5D-01
   Bfn.  Coefficient  Atom+Function         Bfn.  Coefficient  Atom+Function  
  ----- ------------  ---------------      ----- ------------  ---------------
     3      0.584654  2 O  s                  5     -0.549612  2 O  py         
     6      0.549606  2 O  pz                 1     -0.245640  1 H  s          
     7     -0.245647  3 H  s          

 Vector    5  Occ=2.000000D+00  E=-4.051501D-01
              MO Center= -1.3D-18, -9.1D-02,  9.1D-02, r^2= 4.2D-01
   Bfn.  Coefficient  Atom+Function         Bfn.  Coefficient  Atom+Function  
  ----- ------------  ---------------      ----- ------------  ---------------
     4      1.000000  2 O  px         

 Vector    6  Occ=0.000000D+00  E= 7.117015D-01
              MO Center= -1.6D-18,  2.8D-01, -2.8D-01, r^2= 1.0D+00
   Bfn.  Coefficient  Atom+Function         Bfn.  Coefficient  Atom+Function  
  ----- ------------  ---------------      ----- ------------  ---------------
     3      1.050087  2 O  s                  1     -0.866648  1 H  s          
     7     -0.866755  3 H  s                  5      0.558910  2 O  py         
     6     -0.558819  2 O  pz         

 Vector    7  Occ=0.000000D+00  E= 8.421045D-01
              MO Center= -3.9D-22,  1.6D-01, -1.6D-01, r^2= 9.4D-01
   Bfn.  Coefficient  Atom+Function         Bfn.  Coefficient  Atom+Function  
  ----- ------------  ---------------      ----- ------------  ---------------
     1      0.945374  1 H  s                  7     -0.945249  3 H  s          
     5      0.727240  2 O  py                 6      0.727319  2 O  pz         


 center of mass
 --------------
 x =  -0.00000000 y =  -0.08763713 z =   0.08762866

 moments of inertia (a.u.)
 ------------------
           5.115052424628          -0.000000000000          -0.000000000000
          -0.000000000000           2.557488833989          -0.495962174478
          -0.000000000000          -0.495962174478           2.557563590639

  Mulliken analysis of the total density
  --------------------------------------

    Atom       Charge   Shell Charges
 -----------   ------   -------------------------------------------------------
    1 H    1     0.77   0.77
    2 O    8     8.46   2.00  1.82  4.64
    3 H    1     0.77   0.77

       Multipole analysis of the density wrt the origin
       ------------------------------------------------

     L   x y z        total         open         nuclear
     -   - - -        -----         ----         -------
     0   0 0 0     -0.000000      0.000000     10.000000

     1   1 0 0     -0.000000      0.000000     -0.000000
     1   0 1 0      0.527928      0.000000     -0.207942
     1   0 0 1     -0.527930      0.000000      0.207871

     2   2 0 0     -4.468876      0.000000      0.000000
     2   1 1 0      0.000000      0.000000      0.000000
     2   1 0 1      0.000000      0.000000      0.000000
     2   0 2 0     -3.694931      0.000000      2.440583
     2   0 1 1      0.277318      0.000000      0.589234
     2   0 0 2     -3.694935      0.000000      2.440510

                              NWChem Gradients Module
                              -----------------------


                water TDC calculation number 9 in STO-3G basis set


  wavefunction    =   RHF     



                         RHF ENERGY GRADIENTS

    atom               coordinates                        gradient
                 x          y          z           x          y          z
   1 H      -0.000000  -0.284036  -1.456585    0.000000   0.036583   0.214488
   2 O      -0.000000  -0.172563   0.172553   -0.000000   0.177871  -0.177907
   3 H       0.000000   1.456600   0.284032   -0.000000  -0.214454  -0.036581

                 ----------------------------------------
                 |  Time  |  1-e(secs)   |  2-e(secs)   |
                 ----------------------------------------
                 |  CPU   |       0.00   |       0.00   |
                 ----------------------------------------
                 |  WALL  |       0.00   |       0.00   |
                 ----------------------------------------

  Step       Energy      Delta E   Gmax     Grms     Xrms     Xmax   Walltime
  ---- ---------------- -------- -------- -------- -------- -------- --------
@    2     -74.91999962 -3.1D-01  0.21449  0.13248  0.26916  0.44691      0.4
                                                                    

                                 NWChem SCF Module
                                 -----------------


                water TDC calculation number 9 in STO-3G basis set



  ao basis        = "ao basis"
  functions       =     7
  atoms           =     3
  closed shells   =     5
  open shells     =     0
  charge          =   0.00
  wavefunction    = RHF 
  input vectors   = ./water_TDC_9.movecs
  output vectors  = ./water_TDC_9.movecs
  use symmetry    = F
  symmetry adapt  = F


 Summary of "ao basis" -> "ao basis" (cartesian)
 ------------------------------------------------------------------------------
       Tag                 Description            Shells   Functions and Types
 ---------------- ------------------------------  ------  ---------------------
 O                           STO-3G                  3        5   2s1p
 H                           STO-3G                  1        1   1s



 Forming initial guess at       0.4s


 Loading old vectors from job with title :

water TDC calculation number 9 in STO-3G basis set


 Starting SCF solution at       0.4s



 ----------------------------------------------
         Quadratically convergent ROHF

 Convergence threshold     :          1.000E-04
 Maximum no. of iterations :           30
 Final Fock-matrix accuracy:          1.000E-07
 ----------------------------------------------


              iter       energy          gnorm     gmax       time
             ----- ------------------- --------- --------- --------
                 1      -74.9539385992  1.20D-01  8.59D-02      0.3
                 2      -74.9544955186  8.35D-03  6.45D-03      0.3
                 3      -74.9545027050  1.99D-05  1.69D-05      0.3


       Final RHF  results 
       ------------------ 

         Total SCF energy =    -74.954502704955
      One-electron energy =   -122.926708692017
      Two-electron energy =     38.465354562211
 Nuclear repulsion energy =      9.506851424851

        Time for solution =      0.0s


             Final eigenvalues
             -----------------

              1      
    1  -20.2343
    2   -1.2821
    3   -0.6398
    4   -0.4503
    5   -0.3916
    6    0.6333
    7    0.7898

                       ROHF Final Molecular Orbital Analysis
                       -------------------------------------

 Vector    2  Occ=2.000000D+00  E=-1.282050D+00
              MO Center=  8.7D-19,  5.4D-02, -5.4D-02, r^2= 5.4D-01
   Bfn.  Coefficient  Atom+Function         Bfn.  Coefficient  Atom+Function  
  ----- ------------  ---------------      ----- ------------  ---------------
     3      0.822546  2 O  s                  2     -0.231864  2 O  s          
     1      0.161105  1 H  s                  7      0.161112  3 H  s          

 Vector    3  Occ=2.000000D+00  E=-6.397715D-01
              MO Center= -1.1D-26,  8.8D-02, -8.9D-02, r^2= 8.1D-01
   Bfn.  Coefficient  Atom+Function         Bfn.  Coefficient  Atom+Function  
  ----- ------------  ---------------      ----- ------------  ---------------
     1      0.440852  1 H  s                  7     -0.440851  3 H  s          
     5     -0.427480  2 O  py                 6     -0.427466  2 O  pz         

 Vector    4  Occ=2.000000D+00  E=-4.502525D-01
              MO Center=  2.2D-18, -1.3D-01,  1.3D-01, r^2= 5.8D-01
   Bfn.  Coefficient  Atom+Function         Bfn.  Coefficient  Atom+Function  
  ----- ------------  ---------------      ----- ------------  ---------------
     5     -0.560530  2 O  py                 6      0.560542  2 O  pz         
     3      0.537178  2 O  s                  1     -0.261389  1 H  s          
     7     -0.261380  3 H  s          

 Vector    5  Occ=2.000000D+00  E=-3.916017D-01
              MO Center= -1.2D-18, -8.2D-02,  8.2D-02, r^2= 4.2D-01
   Bfn.  Coefficient  Atom+Function         Bfn.  Coefficient  Atom+Function  
  ----- ------------  ---------------      ----- ------------  ---------------
     4      1.000000  2 O  px         

 Vector    6  Occ=0.000000D+00  E= 6.332602D-01
              MO Center= -1.9D-18,  2.7D-01, -2.7D-01, r^2= 1.1D+00
   Bfn.  Coefficient  Atom+Function         Bfn.  Coefficient  Atom+Function  
  ----- ------------  ---------------      ----- ------------  ---------------
     3      0.949525  2 O  s                  1     -0.824489  1 H  s          
     7     -0.824401  3 H  s                  5      0.515021  2 O  py         
     6     -0.515107  2 O  pz         

 Vector    7  Occ=0.000000D+00  E= 7.897708D-01
              MO Center=  4.2D-22,  1.5D-01, -1.5D-01, r^2= 1.0D+00
   Bfn.  Coefficient  Atom+Function         Bfn.  Coefficient  Atom+Function  
  ----- ------------  ---------------      ----- ------------  ---------------
     1      0.868021  1 H  s                  7     -0.868132  3 H  s          
     5      0.719924  2 O  py                 6      0.719850  2 O  pz         


 center of mass
 --------------
 x =  -0.00000000 y =  -0.07332093 z =   0.07333534

 moments of inertia (a.u.)
 ------------------
           5.918587267391          -0.000000000000          -0.000000000000
          -0.000000000000           2.959329687215          -1.035456255066
          -0.000000000000          -1.035456255066           2.959257580176

  Mulliken analysis of the total density
  --------------------------------------

    Atom       Charge   Shell Charges
 -----------   ------   -------------------------------------------------------
    1 H    1     0.80   0.80
    2 O    8     8.40   2.00  1.81  4.59
    3 H    1     0.80   0.80

       Multipole analysis of the density wrt the origin
       ------------------------------------------------

     L   x y z        total         open         nuclear
     -   - - -        -----         ----         -------
     0   0 0 0     -0.000000      0.000000     10.000000

     1   1 0 0     -0.000000      0.000000     -0.000000
     1   0 1 0      0.485982      0.000000     -0.087512
     1   0 0 1     -0.485984      0.000000      0.087633

     2   2 0 0     -4.507576      0.000000      0.000000
     2   1 1 0      0.000000      0.000000      0.000000
     2   1 0 1      0.000000      0.000000      0.000000
     2   0 2 0     -3.618787      0.000000      2.842383
     2   0 1 1      0.431754      0.000000      1.121317
     2   0 0 2     -3.618793      0.000000      2.842450

 Line search: 
     step= 1.00 grad=-5.4D-02 hess= 1.9D-02 energy=    -74.954503 mode=downhill
 new step= 1.40                   predicted energy=    -74.957575

          --------
          Step   3
          --------


                         Geometry "geometry" -> "geometry"
                         ---------------------------------

 Output coordinates in a.u. (scale by  1.000000000 to convert to a.u.)

  No.       Tag          Charge          X              Y              Z
 ---- ---------------- ---------- -------------- -------------- --------------
    1 H                    1.0000    -0.00000000    -0.47133688    -1.61982503
    2 O                    8.0000    -0.00000000    -0.14846882     0.14849715
    3 H                    1.0000     0.00000000     1.61980570     0.47132789

      Atomic Mass 
      ----------- 

      H                  1.007825
      O                 15.994910


 Effective nuclear repulsion energy (a.u.)       9.2392506622

            Nuclear Dipole moment (a.u.) 
            ----------------------------
        X                 Y               Z
 ---------------- ---------------- ----------------
     0.0000000000    -0.0392817109     0.0394800156

                                 NWChem SCF Module
                                 -----------------


                water TDC calculation number 9 in STO-3G basis set



  ao basis        = "ao basis"
  functions       =     7
  atoms           =     3
  closed shells   =     5
  open shells     =     0
  charge          =   0.00
  wavefunction    = RHF 
  input vectors   = ./water_TDC_9.movecs
  output vectors  = ./water_TDC_9.movecs
  use symmetry    = F
  symmetry adapt  = F


 Summary of "ao basis" -> "ao basis" (cartesian)
 ------------------------------------------------------------------------------
       Tag                 Description            Shells   Functions and Types
 ---------------- ------------------------------  ------  ---------------------
 O                           STO-3G                  3        5   2s1p
 H                           STO-3G                  1        1   1s



 Forming initial guess at       0.4s


 Loading old vectors from job with title :

water TDC calculation number 9 in STO-3G basis set


 Starting SCF solution at       0.4s



 ----------------------------------------------
         Quadratically convergent ROHF

 Convergence threshold     :          1.000E-04
 Maximum no. of iterations :           30
 Final Fock-matrix accuracy:          1.000E-07
 ----------------------------------------------


              iter       energy          gnorm     gmax       time
             ----- ------------------- --------- --------- --------
                 1      -74.9585150695  4.42D-02  3.39D-02      0.3
                 2      -74.9585844677  3.09D-04  2.63D-04      0.3
                 3      -74.9585844758  3.77D-06  2.64D-06      0.4


       Final RHF  results 
       ------------------ 

         Total SCF energy =    -74.958584475817
      One-electron energy =   -122.494637234724
      Two-electron energy =     38.296802096722
 Nuclear repulsion energy =      9.239250662185

        Time for solution =      0.0s


             Final eigenvalues
             -----------------

              1      
    1  -20.2315
    2   -1.2636
    3   -0.6304
    4   -0.4385
    5   -0.3865
    6    0.5992
    7    0.7686

                       ROHF Final Molecular Orbital Analysis
                       -------------------------------------

 Vector    2  Occ=2.000000D+00  E=-1.263605D+00
              MO Center=  1.0D-18,  4.8D-02, -4.8D-02, r^2= 5.4D-01
   Bfn.  Coefficient  Atom+Function         Bfn.  Coefficient  Atom+Function  
  ----- ------------  ---------------      ----- ------------  ---------------
     3      0.832390  2 O  s                  2     -0.233015  2 O  s          
     1      0.160434  1 H  s                  7      0.160445  3 H  s          

 Vector    3  Occ=2.000000D+00  E=-6.304105D-01
              MO Center=  2.8D-24,  9.3D-02, -9.3D-02, r^2= 8.4D-01
   Bfn.  Coefficient  Atom+Function         Bfn.  Coefficient  Atom+Function  
  ----- ------------  ---------------      ----- ------------  ---------------
     1      0.440930  1 H  s                  7     -0.440928  3 H  s          
     5     -0.423381  2 O  py                 6     -0.423359  2 O  pz         

 Vector    4  Occ=2.000000D+00  E=-4.385258D-01
              MO Center=  2.1D-18, -1.2D-01,  1.2D-01, r^2= 5.9D-01
   Bfn.  Coefficient  Atom+Function         Bfn.  Coefficient  Atom+Function  
  ----- ------------  ---------------      ----- ------------  ---------------
     5     -0.563942  2 O  py                 6      0.563960  2 O  pz         
     3      0.519108  2 O  s                  1     -0.268064  1 H  s          
     7     -0.268048  3 H  s          

 Vector    5  Occ=2.000000D+00  E=-3.864857D-01
              MO Center= -1.1D-18, -7.9D-02,  7.9D-02, r^2= 4.2D-01
   Bfn.  Coefficient  Atom+Function         Bfn.  Coefficient  Atom+Function  
  ----- ------------  ---------------      ----- ------------  ---------------
     4      1.000000  2 O  px         

 Vector    6  Occ=0.000000D+00  E= 5.991588D-01
              MO Center= -2.0D-18,  2.6D-01, -2.6D-01, r^2= 1.1D+00
   Bfn.  Coefficient  Atom+Function         Bfn.  Coefficient  Atom+Function  
  ----- ------------  ---------------      ----- ------------  ---------------
     3      0.909060  2 O  s                  1     -0.807551  1 H  s          
     7     -0.807420  3 H  s                  5      0.499935  2 O  py         
     6     -0.500066  2 O  pz         

 Vector    7  Occ=0.000000D+00  E= 7.685732D-01
              MO Center=  7.0D-22,  1.5D-01, -1.5D-01, r^2= 1.0D+00
   Bfn.  Coefficient  Atom+Function         Bfn.  Coefficient  Atom+Function  
  ----- ------------  ---------------      ----- ------------  ---------------
     1      0.840930  1 H  s                  7     -0.841101  3 H  s          
     5      0.715368  2 O  py                 6      0.715259  2 O  pz         


 center of mass
 --------------
 x =   0.00000000 y =  -0.06758756 z =   0.06761113

 moments of inertia (a.u.)
 ------------------
           6.277132424959          -0.000000000000          -0.000000000000
          -0.000000000000           3.138632087710          -1.268550643777
          -0.000000000000          -1.268550643777           3.138500337249

  Mulliken analysis of the total density
  --------------------------------------

    Atom       Charge   Shell Charges
 -----------   ------   -------------------------------------------------------
    1 H    1     0.81   0.81
    2 O    8     8.38   2.00  1.81  4.57
    3 H    1     0.81   0.81

       Multipole analysis of the density wrt the origin
       ------------------------------------------------

     L   x y z        total         open         nuclear
     -   - - -        -----         ----         -------
     0   0 0 0     -0.000000      0.000000     10.000000

     1   1 0 0     -0.000000      0.000000      0.000000
     1   0 1 0      0.470360      0.000000     -0.039282
     1   0 0 1     -0.470361      0.000000      0.039480

     2   2 0 0     -4.522572      0.000000      0.000000
     2   1 1 0      0.000000      0.000000      0.000000
     2   1 0 1      0.000000      0.000000      0.000000
     2   0 2 0     -3.585879      0.000000      3.022273
     2   0 1 1      0.491966      0.000000      1.350565
     2   0 0 2     -3.585885      0.000000      3.022394

                              NWChem Gradients Module
                              -----------------------


                water TDC calculation number 9 in STO-3G basis set


  wavefunction    =   RHF     



                         RHF ENERGY GRADIENTS

    atom               coordinates                        gradient
                 x          y          z           x          y          z
   1 H      -0.000000  -0.471337  -1.619825    0.000000  -0.017182   0.046109
   2 O      -0.000000  -0.148469   0.148497   -0.000000   0.063335  -0.063284
   3 H       0.000000   1.619806   0.471328   -0.000000  -0.046153   0.017175

                 ----------------------------------------
                 |  Time  |  1-e(secs)   |  2-e(secs)   |
                 ----------------------------------------
                 |  CPU   |       0.00   |       0.00   |
                 ----------------------------------------
                 |  WALL  |       0.00   |       0.00   |
                 ----------------------------------------

  Step       Energy      Delta E   Gmax     Grms     Xrms     Xmax   Walltime
  ---- ---------------- -------- -------- -------- -------- -------- --------
@    3     -74.95858448 -3.9D-02  0.06333  0.03780  0.11766  0.18730      0.5
                                                                    

                                 NWChem SCF Module
                                 -----------------


                water TDC calculation number 9 in STO-3G basis set



  ao basis        = "ao basis"
  functions       =     7
  atoms           =     3
  closed shells   =     5
  open shells     =     0
  charge          =   0.00
  wavefunction    = RHF 
  input vectors   = ./water_TDC_9.movecs
  output vectors  = ./water_TDC_9.movecs
  use symmetry    = F
  symmetry adapt  = F


 Summary of "ao basis" -> "ao basis" (cartesian)
 ------------------------------------------------------------------------------
       Tag                 Description            Shells   Functions and Types
 ---------------- ------------------------------  ------  ---------------------
 O                           STO-3G                  3        5   2s1p
 H                           STO-3G                  1        1   1s



 Forming initial guess at       0.5s


 Loading old vectors from job with title :

water TDC calculation number 9 in STO-3G basis set


 Starting SCF solution at       0.5s



 ----------------------------------------------
         Quadratically convergent ROHF

 Convergence threshold     :          1.000E-04
 Maximum no. of iterations :           30
 Final Fock-matrix accuracy:          1.000E-07
 ----------------------------------------------


              iter       energy          gnorm     gmax       time
             ----- ------------------- --------- --------- --------
                 1      -74.9622443399  3.85D-02  3.49D-02      0.4
                 2      -74.9624737434  3.72D-04  2.36D-04      0.4
                 3      -74.9624737565  9.38D-06  8.31D-06      0.4


       Final RHF  results 
       ------------------ 

         Total SCF energy =    -74.962473756538
      One-electron energy =   -122.273631363502
      Two-electron energy =     38.184114411497
 Nuclear repulsion energy =      9.127043195467

        Time for solution =      0.0s


             Final eigenvalues
             -----------------

              1      
    1  -20.2383
    2   -1.2616
    3   -0.6190
    4   -0.4453
    5   -0.3885
    6    0.5937
    7    0.7433

                       ROHF Final Molecular Orbital Analysis
                       -------------------------------------

 Vector    2  Occ=2.000000D+00  E=-1.261636D+00
              MO Center=  1.0D-18,  3.6D-02, -3.6D-02, r^2= 5.4D-01
   Bfn.  Coefficient  Atom+Function         Bfn.  Coefficient  Atom+Function  
  ----- ------------  ---------------      ----- ------------  ---------------
     3      0.836400  2 O  s                  2     -0.233249  2 O  s          
     1      0.158825  1 H  s                  7      0.158822  3 H  s          

 Vector    3  Occ=2.000000D+00  E=-6.189545D-01
              MO Center= -7.3D-25,  8.8D-02, -8.8D-02, r^2= 8.4D-01
   Bfn.  Coefficient  Atom+Function         Bfn.  Coefficient  Atom+Function  
  ----- ------------  ---------------      ----- ------------  ---------------
     1      0.443829  1 H  s                  7     -0.443829  3 H  s          
     5     -0.425857  2 O  py                 6     -0.425860  2 O  pz         

 Vector    4  Occ=2.000000D+00  E=-4.452617D-01
              MO Center=  2.0D-18, -1.2D-01,  1.2D-01, r^2= 6.2D-01
   Bfn.  Coefficient  Atom+Function         Bfn.  Coefficient  Atom+Function  
  ----- ------------  ---------------      ----- ------------  ---------------
     5     -0.554560  2 O  py                 6      0.554557  2 O  pz         
     3      0.526113  2 O  s                  1     -0.277164  1 H  s          
     7     -0.277168  3 H  s          

 Vector    5  Occ=2.000000D+00  E=-3.885368D-01
              MO Center= -1.1D-18, -9.3D-02,  9.3D-02, r^2= 4.2D-01
   Bfn.  Coefficient  Atom+Function         Bfn.  Coefficient  Atom+Function  
  ----- ------------  ---------------      ----- ------------  ---------------
     4      1.000000  2 O  px         

 Vector    6  Occ=0.000000D+00  E= 5.937429D-01
              MO Center= -2.0D-18,  2.6D-01, -2.6D-01, r^2= 1.1D+00
   Bfn.  Coefficient  Atom+Function         Bfn.  Coefficient  Atom+Function  
  ----- ------------  ---------------      ----- ------------  ---------------
     3      0.879895  2 O  s                  1     -0.795420  1 H  s          
     7     -0.795455  3 H  s                  5      0.513435  2 O  py         
     6     -0.513403  2 O  pz         

 Vector    7  Occ=0.000000D+00  E= 7.432751D-01
              MO Center= -1.9D-22,  1.5D-01, -1.5D-01, r^2= 1.0D+00
   Bfn.  Coefficient  Atom+Function         Bfn.  Coefficient  Atom+Function  
  ----- ------------  ---------------      ----- ------------  ---------------
     1      0.831004  1 H  s                  7     -0.830959  3 H  s          
     5      0.703570  2 O  py                 6      0.703596  2 O  pz         


 center of mass
 --------------
 x =   0.00000000 y =  -0.08968869 z =   0.08968510

 moments of inertia (a.u.)
 ------------------
           6.421769695967          -0.000000000000          -0.000000000000
          -0.000000000000           3.210862016795          -1.129153966867
          -0.000000000000          -1.129153966867           3.210907679172

  Mulliken analysis of the total density
  --------------------------------------

    Atom       Charge   Shell Charges
 -----------   ------   -------------------------------------------------------
    1 H    1     0.82   0.82
    2 O    8     8.37   2.00  1.82  4.54
    3 H    1     0.82   0.82

       Multipole analysis of the density wrt the origin
       ------------------------------------------------

     L   x y z        total         open         nuclear
     -   - - -        -----         ----         -------
     0   0 0 0     -0.000000      0.000000     10.000000

     1   1 0 0     -0.000000      0.000000      0.000000
     1   0 1 0      0.472586      0.000000     -0.225200
     1   0 0 1     -0.472588      0.000000      0.225170

     2   2 0 0     -4.533272      0.000000      0.000000
     2   1 1 0      0.000000      0.000000      0.000000
     2   1 0 1      0.000000      0.000000      0.000000
     2   0 2 0     -3.625748      0.000000      3.088611
     2   0 1 1      0.456314      0.000000      1.217753
     2   0 0 2     -3.625752      0.000000      3.088566

 Line search: 
     step= 1.00 grad=-4.6D-03 hess= 6.9D-04 energy=    -74.962474 mode=downhill
 new step= 3.32                   predicted energy=    -74.966186

          --------
          Step   4
          --------


                         Geometry "geometry" -> "geometry"
                         ---------------------------------

 Output coordinates in a.u. (scale by  1.000000000 to convert to a.u.)

  No.       Tag          Charge          X              Y              Z
 ---- ---------------- ---------- -------------- -------------- --------------
    1 H                    1.0000    -0.00000000    -0.40074688    -1.63732225
    2 O                    8.0000     0.00000000    -0.23664961     0.23656955
    3 H                    1.0000     0.00000000     1.63739649     0.40075270

      Atomic Mass 
      ----------- 

      H                  1.007825
      O                 15.994910


 Effective nuclear repulsion energy (a.u.)       8.8524065341

            Nuclear Dipole moment (a.u.) 
            ----------------------------
        X                 Y               Z
 ---------------- ---------------- ----------------
     0.0000000000    -0.6565472587     0.6559868387

                                 NWChem SCF Module
                                 -----------------


                water TDC calculation number 9 in STO-3G basis set



  ao basis        = "ao basis"
  functions       =     7
  atoms           =     3
  closed shells   =     5
  open shells     =     0
  charge          =   0.00
  wavefunction    = RHF 
  input vectors   = ./water_TDC_9.movecs
  output vectors  = ./water_TDC_9.movecs
  use symmetry    = F
  symmetry adapt  = F


 Summary of "ao basis" -> "ao basis" (cartesian)
 ------------------------------------------------------------------------------
       Tag                 Description            Shells   Functions and Types
 ---------------- ------------------------------  ------  ---------------------
 O                           STO-3G                  3        5   2s1p
 H                           STO-3G                  1        1   1s



 Forming initial guess at       0.5s


 Loading old vectors from job with title :

water TDC calculation number 9 in STO-3G basis set


 Starting SCF solution at       0.5s



 ----------------------------------------------
         Quadratically convergent ROHF

 Convergence threshold     :          1.000E-04
 Maximum no. of iterations :           30
 Final Fock-matrix accuracy:          1.000E-07
 ----------------------------------------------


              iter       energy          gnorm     gmax       time
             ----- ------------------- --------- --------- --------
                 1      -74.9646862604  8.77D-02  7.90D-02      0.4
                 2      -74.9658191572  4.63D-03  2.88D-03      0.4
                 3      -74.9658208525  8.19D-06  5.90D-06      0.4


       Final RHF  results 
       ------------------ 

         Total SCF energy =    -74.965820852534
      One-electron energy =   -121.737840366547
      Two-electron energy =     37.919612979928
 Nuclear repulsion energy =      8.852406534085

        Time for solution =      0.0s


             Final eigenvalues
             -----------------

              1      
    1  -20.2524
    2   -1.2547
    3   -0.5908
    4   -0.4590
    5   -0.3924
    6    0.5761
    7    0.6859

                       ROHF Final Molecular Orbital Analysis
                       -------------------------------------

 Vector    2  Occ=2.000000D+00  E=-1.254700D+00
              MO Center=  1.1D-18,  6.8D-03, -6.9D-03, r^2= 5.4D-01
   Bfn.  Coefficient  Atom+Function         Bfn.  Coefficient  Atom+Function  
  ----- ------------  ---------------      ----- ------------  ---------------
     3      0.846735  2 O  s                  2     -0.234034  2 O  s          
     1      0.155083  1 H  s                  7      0.155052  3 H  s          

 Vector    3  Occ=2.000000D+00  E=-5.908324D-01
              MO Center= -5.2D-24,  7.6D-02, -7.5D-02, r^2= 8.5D-01
   Bfn.  Coefficient  Atom+Function         Bfn.  Coefficient  Atom+Function  
  ----- ------------  ---------------      ----- ------------  ---------------
     1      0.449520  1 H  s                  7     -0.449505  3 H  s          
     5     -0.433180  2 O  py                 6     -0.433273  2 O  pz         

 Vector    4  Occ=2.000000D+00  E=-4.590167D-01
              MO Center=  1.9D-18, -1.3D-01,  1.3D-01, r^2= 6.7D-01
   Bfn.  Coefficient  Atom+Function         Bfn.  Coefficient  Atom+Function  
  ----- ------------  ---------------      ----- ------------  ---------------
     3      0.535761  2 O  s                  5     -0.533626  2 O  py         
     6      0.533550  2 O  pz                 1     -0.297341  1 H  s          
     7     -0.297413  3 H  s          

 Vector    5  Occ=2.000000D+00  E=-3.923517D-01
              MO Center= -1.1D-18, -1.3D-01,  1.3D-01, r^2= 4.2D-01
   Bfn.  Coefficient  Atom+Function         Bfn.  Coefficient  Atom+Function  
  ----- ------------  ---------------      ----- ------------  ---------------
     4      1.000000  2 O  px         

 Vector    6  Occ=0.000000D+00  E= 5.761055D-01
              MO Center= -1.9D-18,  2.5D-01, -2.5D-01, r^2= 1.1D+00
   Bfn.  Coefficient  Atom+Function         Bfn.  Coefficient  Atom+Function  
  ----- ------------  ---------------      ----- ------------  ---------------
     3     -0.810403  2 O  s                  1      0.764833  1 H  s          
     7      0.765409  3 H  s                  5     -0.539878  2 O  py         
     6      0.539340  2 O  pz         

 Vector    7  Occ=0.000000D+00  E= 6.858542D-01
              MO Center= -3.0D-21,  1.4D-01, -1.4D-01, r^2= 1.0D+00
   Bfn.  Coefficient  Atom+Function         Bfn.  Coefficient  Atom+Function  
  ----- ------------  ---------------      ----- ------------  ---------------
     1      0.810012  1 H  s                  7     -0.809347  3 H  s          
     5      0.676206  2 O  py                 6      0.676681  2 O  pz         


 center of mass
 --------------
 x =   0.00000000 y =  -0.14096523 z =   0.14089861

 moments of inertia (a.u.)
 ------------------
           6.803038931518          -0.000000000000          -0.000000000000
          -0.000000000000           3.401265414696          -0.784873690154
          -0.000000000000          -0.784873690154           3.401773516822

  Mulliken analysis of the total density
  --------------------------------------

    Atom       Charge   Shell Charges
 -----------   ------   -------------------------------------------------------
    1 H    1     0.84   0.84
    2 O    8     8.33   2.00  1.85  4.48
    3 H    1     0.84   0.84

       Multipole analysis of the density wrt the origin
       ------------------------------------------------

     L   x y z        total         open         nuclear
     -   - - -        -----         ----         -------
     0   0 0 0      0.000000      0.000000     10.000000

     1   1 0 0     -0.000000      0.000000      0.000000
     1   0 1 0      0.473130      0.000000     -0.656547
     1   0 0 1     -0.473142      0.000000      0.655987

     2   2 0 0     -4.558057      0.000000      0.000000
     2   1 1 0      0.000000      0.000000      0.000000
     2   1 0 1      0.000000      0.000000      0.000000
     2   0 2 0     -3.711487      0.000000      3.289690
     2   0 1 1      0.377857      0.000000      0.864470
     2   0 0 2     -3.711482      0.000000      3.289148

                              NWChem Gradients Module
                              -----------------------


                water TDC calculation number 9 in STO-3G basis set


  wavefunction    =   RHF     



                         RHF ENERGY GRADIENTS

    atom               coordinates                        gradient
                 x          y          z           x          y          z
   1 H      -0.000000  -0.400747  -1.637322    0.000000  -0.001014  -0.006881
   2 O       0.000000  -0.236650   0.236570   -0.000000  -0.005974   0.005858
   3 H       0.000000   1.637396   0.400753   -0.000000   0.006988   0.001023

                 ----------------------------------------
                 |  Time  |  1-e(secs)   |  2-e(secs)   |
                 ----------------------------------------
                 |  CPU   |       0.00   |       0.00   |
                 ----------------------------------------
                 |  WALL  |       0.00   |       0.00   |
                 ----------------------------------------

  Step       Energy      Delta E   Gmax     Grms     Xrms     Xmax   Walltime
  ---- ---------------- -------- -------- -------- -------- -------- --------
@    4     -74.96582085 -7.2D-03  0.00699  0.00432  0.05386  0.08818      0.5
                                                                    

                                 NWChem SCF Module
                                 -----------------


                water TDC calculation number 9 in STO-3G basis set



  ao basis        = "ao basis"
  functions       =     7
  atoms           =     3
[...]
 tddft_grad_init:                failed to read isroots                   0
 ------------------------------------------------------------------------
 ------------------------------------------------------------------------
  current input line : 
     0: 
 ------------------------------------------------------------------------
 ------------------------------------------------------------------------
 An error occured in the Runtime Database
 ------------------------------------------------------------------------
 For more information see the NWChem manual at http://www.nwchem-sw.org/index.php/NWChem_Documentation


 For further details see manual section:                                                                                                                                                                                                                                                                
18:18:tddft_grad_init:                failed to read isroots:: -1
(rank:18 hostname:g25 pid:22955):ARMCI DASSERT fail. ../../ga-5-4/armci/src/common/armci.c:ARMCI_Error():208 cond:0
 tddft_grad_init:                failed to read isroots                   0
 ------------------------------------------------------------------------
 ------------------------------------------------------------------------
  current input line : 
     0: 
 ------------------------------------------------------------------------
 ------------------------------------------------------------------------
 An error occured in the Runtime Database
 ------------------------------------------------------------------------
 For more information see the NWChem manual at http://www.nwchem-sw.org/index.php/NWChem_Documentation


 For further details see manual section:                                                                                                                                                                                                                                                                
14:14:tddft_grad_init:                failed to read isroots:: -1
(rank:14 hostname:g25 pid:22951):ARMCI DASSERT fail. ../../ga-5-4/armci/src/common/armci.c:ARMCI_Error():208 cond:0
 tddft_grad_init:                failed to read isroots                   0
 ------------------------------------------------------------------------
 ------------------------------------------------------------------------
  current input line : 
     0: 
 ------------------------------------------------------------------------
 ------------------------------------------------------------------------
 An error occured in the Runtime Database
 ------------------------------------------------------------------------
 For more information see the NWChem manual at http://www.nwchem-sw.org/index.php/NWChem_Documentation


 For further details see manual section:                                                                                                                                                                                                                                                                
11:11:tddft_grad_init:                failed to read isroots:: -1
(rank:11 hostname:g25 pid:22948):ARMCI DASSERT fail. ../../ga-5-4/armci/src/common/armci.c:ARMCI_Error():208 cond:0
 ------------------------------------------------------------------------
 tddft_grad_init:                failed to read isroots                   0
 ------------------------------------------------------------------------
 ------------------------------------------------------------------------
  current input line : 
    28: task tddft optimize
 ------------------------------------------------------------------------
 ------------------------------------------------------------------------
 An error occured in the Runtime Database
 ------------------------------------------------------------------------
 For more information see the NWChem manual at http://www.nwchem-sw.org/index.php/NWChem_Documentation


 For further details see manual section:                                                                                                                                                                                                                                                                
0:0:tddft_grad_init:                failed to read isroots:: -1
(rank:0 hostname:g25 pid:22937):ARMCI DASSERT fail. ../../ga-5-4/armci/src/common/armci.c:ARMCI_Error():208 cond:0
 tddft_grad_init:                failed to read isroots                   0
 ------------------------------------------------------------------------
 ------------------------------------------------------------------------
  current input line : 
     0: 
 ------------------------------------------------------------------------
 ------------------------------------------------------------------------
 An error occured in the Runtime Database
 ------------------------------------------------------------------------
 For more information see the NWChem manual at http://www.nwchem-sw.org/index.php/NWChem_Documentation


 For further details see manual section:                                                                                                                                                                                                                                                                
7:7:tddft_grad_init:                failed to read isroots:: -1
(rank:7 hostname:g25 pid:22944):ARMCI DASSERT fail. ../../ga-5-4/armci/src/common/armci.c:ARMCI_Error():208 cond:0
 tddft_grad_init:                failed to read isroots                   0
 ------------------------------------------------------------------------
 ------------------------------------------------------------------------
  current input line : 
     0: 
 ------------------------------------------------------------------------
 ------------------------------------------------------------------------
 An error occured in the Runtime Database
 ------------------------------------------------------------------------
 For more information see the NWChem manual at http://www.nwchem-sw.org/index.php/NWChem_Documentation


 For further details see manual section:                                                                                                                                                                                                                                                                
15:15:tddft_grad_init:                failed to read isroots:: -1
(rank:15 hostname:g25 pid:22952):ARMCI DASSERT fail. ../../ga-5-4/armci/src/common/armci.c:ARMCI_Error():208 cond:0
 tddft_grad_init:                failed to read isroots                   0
 ------------------------------------------------------------------------
 ------------------------------------------------------------------------
  current input line : 
     0: 
 ------------------------------------------------------------------------
 ------------------------------------------------------------------------
 An error occured in the Runtime Database
 ------------------------------------------------------------------------
 For more information see the NWChem manual at http://www.nwchem-sw.org/index.php/NWChem_Documentation


 For further details see manual section:                                                                                                                                                                                                                                                                
16:16:tddft_grad_init:                failed to read isroots:: -1
(rank:16 hostname:g25 pid:22953):ARMCI DASSERT fail. ../../ga-5-4/armci/src/common/armci.c:ARMCI_Error():208 cond:0
 tddft_grad_init:                failed to read isroots                   0
 ------------------------------------------------------------------------
 ------------------------------------------------------------------------
  current input line : 
     0: 
 ------------------------------------------------------------------------
 ------------------------------------------------------------------------
 An error occured in the Runtime Database
 ------------------------------------------------------------------------
 For more information see the NWChem manual at http://www.nwchem-sw.org/index.php/NWChem_Documentation


 For further details see manual section:                                                                                                                                                                                                                                                                
17:17:tddft_grad_init:                failed to read isroots:: -1
(rank:17 hostname:g25 pid:22954):ARMCI DASSERT fail. ../../ga-5-4/armci/src/common/armci.c:ARMCI_Error():208 cond:0
 tddft_grad_init:                failed to read isroots                   0
 ------------------------------------------------------------------------
 ------------------------------------------------------------------------
  current input line : 
     0: 
 ------------------------------------------------------------------------
 ------------------------------------------------------------------------
 An error occured in the Runtime Database
 ------------------------------------------------------------------------
 For more information see the NWChem manual at http://www.nwchem-sw.org/index.php/NWChem_Documentation


 For further details see manual section:                                                                                                                                                                                                                                                                
3:3:tddft_grad_init:                failed to read isroots:: -1
(rank:3 hostname:g25 pid:22940):ARMCI DASSERT fail. ../../ga-5-4/armci/src/common/armci.c:ARMCI_Error():208 cond:0
 tddft_grad_init:                failed to read isroots                   0
 ------------------------------------------------------------------------
 ------------------------------------------------------------------------
  current input line : 
     0: 
 ------------------------------------------------------------------------
 ------------------------------------------------------------------------
 An error occured in the Runtime Database
 ------------------------------------------------------------------------
 For more information see the NWChem manual at http://www.nwchem-sw.org/index.php/NWChem_Documentation


 For further details see manual section:                                                                                                                                                                                                                                                                
13:13:tddft_grad_init:                failed to read isroots:: -1
(rank:13 hostname:g25 pid:22950):ARMCI DASSERT fail. ../../ga-5-4/armci/src/common/armci.c:ARMCI_Error():208 cond:0
 tddft_grad_init:                failed to read isroots                   0
 ------------------------------------------------------------------------
 ------------------------------------------------------------------------
  current input line : 
     0: 
 ------------------------------------------------------------------------
 ------------------------------------------------------------------------
 An error occured in the Runtime Database
 ------------------------------------------------------------------------
 For more information see the NWChem manual at http://www.nwchem-sw.org/index.php/NWChem_Documentation


 For further details see manual section:                                                                                                                                                                                                                                                                
1:1:tddft_grad_init:                failed to read isroots:: -1
(rank:1 hostname:g25 pid:22938):ARMCI DASSERT fail. ../../ga-5-4/armci/src/common/armci.c:ARMCI_Error():208 cond:0
 tddft_grad_init:                failed to read isroots                   0
 ------------------------------------------------------------------------
 ------------------------------------------------------------------------
  current input line : 
     0: 
 ------------------------------------------------------------------------
 ------------------------------------------------------------------------
 An error occured in the Runtime Database
 ------------------------------------------------------------------------
 For more information see the NWChem manual at http://www.nwchem-sw.org/index.php/NWChem_Documentation


 For further details see manual section:                                                                                                                                                                                                                                                                
2:2:tddft_grad_init:                failed to read isroots:: -1
(rank:2 hostname:g25 pid:22939):ARMCI DASSERT fail. ../../ga-5-4/armci/src/common/armci.c:ARMCI_Error():208 cond:0
 tddft_grad_init:                failed to read isroots                   0
 ------------------------------------------------------------------------
 ------------------------------------------------------------------------
  current input line : 
     0: 
 ------------------------------------------------------------------------
 ------------------------------------------------------------------------
 An error occured in the Runtime Database
 ------------------------------------------------------------------------
 For more information see the NWChem manual at http://www.nwchem-sw.org/index.php/NWChem_Documentation


 For further details see manual section:                                                                                                                                                                                                                                                                
6:6:tddft_grad_init:                failed to read isroots:: -1
(rank:6 hostname:g25 pid:22943):ARMCI DASSERT fail. ../../ga-5-4/armci/src/common/armci.c:ARMCI_Error():208 cond:0
 tddft_grad_init:                failed to read isroots                   0
 ------------------------------------------------------------------------
 ------------------------------------------------------------------------
  current input line : 
     0: 
 ------------------------------------------------------------------------
 ------------------------------------------------------------------------
 An error occured in the Runtime Database
 ------------------------------------------------------------------------
 For more information see the NWChem manual at http://www.nwchem-sw.org/index.php/NWChem_Documentation


 For further details see manual section:                                                                                                                                                                                                                                                                
10:10:tddft_grad_init:                failed to read isroots:: -1
(rank:10 hostname:g25 pid:22947):ARMCI DASSERT fail. ../../ga-5-4/armci/src/common/armci.c:ARMCI_Error():208 cond:0
 tddft_grad_init:                failed to read isroots                   0
 ------------------------------------------------------------------------
 ------------------------------------------------------------------------
  current input line : 
     0: 
 ------------------------------------------------------------------------
 ------------------------------------------------------------------------
 An error occured in the Runtime Database
 ------------------------------------------------------------------------
 For more information see the NWChem manual at http://www.nwchem-sw.org/index.php/NWChem_Documentation


 For further details see manual section:                                                                                                                                                                                                                                                                
4:4:tddft_grad_init:                failed to read isroots:: -1
(rank:4 hostname:g25 pid:22941):ARMCI DASSERT fail. ../../ga-5-4/armci/src/common/armci.c:ARMCI_Error():208 cond:0
 tddft_grad_init:                failed to read isroots                   0
 ------------------------------------------------------------------------
 ------------------------------------------------------------------------
  current input line : 
     0: 
 ------------------------------------------------------------------------
 ------------------------------------------------------------------------
 An error occured in the Runtime Database
 ------------------------------------------------------------------------
 For more information see the NWChem manual at http://www.nwchem-sw.org/index.php/NWChem_Documentation


 For further details see manual section:                                                                                                                                                                                                                                                                
5:5:tddft_grad_init:                failed to read isroots:: -1
(rank:5 hostname:g25 pid:22942):ARMCI DASSERT fail. ../../ga-5-4/armci/src/common/armci.c:ARMCI_Error():208 cond:0
 tddft_grad_init:                failed to read isroots                   0
 ------------------------------------------------------------------------
 ------------------------------------------------------------------------
  current input line : 
     0: 
 ------------------------------------------------------------------------
 ------------------------------------------------------------------------
 An error occured in the Runtime Database
 ------------------------------------------------------------------------
 For more information see the NWChem manual at http://www.nwchem-sw.org/index.php/NWChem_Documentation


 For further details see manual section:                                                                                                                                                                                                                                                                
8:8:tddft_grad_init:                failed to read isroots:: -1
(rank:8 hostname:g25 pid:22945):ARMCI DASSERT fail. ../../ga-5-4/armci/src/common/armci.c:ARMCI_Error():208 cond:0
 tddft_grad_init:                failed to read isroots                   0
 ------------------------------------------------------------------------
 ------------------------------------------------------------------------
  current input line : 
     0: 
 ------------------------------------------------------------------------
 ------------------------------------------------------------------------
 An error occured in the Runtime Database
 ------------------------------------------------------------------------
 For more information see the NWChem manual at http://www.nwchem-sw.org/index.php/NWChem_Documentation


 For further details see manual section:                                                                                                                                                                                                                                                                
9:9:tddft_grad_init:                failed to read isroots:: -1
(rank:9 hostname:g25 pid:22946):ARMCI DASSERT fail. ../../ga-5-4/armci/src/common/armci.c:ARMCI_Error():208 cond:0
