 argument  1 = /scratch/owengray/water_scf_test4/water_scf_test4.nw



============================== echo of input deck ==============================
echo

start h2o
title "Water in STO-3G basis set"

scratch_dir /scratch/owengray/water_scf_test4/

geometry units au
	O	0.00000000	0.00000000	0.00000000
	H	0.00000000	1.43042809	-1.10715266
	H	0.00000000	-1.43042809	-1.10715266
end
basis
	H library STO-3G
	O library STO-3G
end

charge 0
scf
	rohf
	vectors output h2o.movecs
end
task scf energy

tddft
	cis
	print debug
	notriplet
	civecs
end
TASK TDDFT energy

dplot
	root 1
	limitxyz
		-2 2 50
		-2 2 50
		-2 2 50
		gaussian
		output root1.cube
end
task dplot
================================================================================


                                         
                                         


              Northwest Computational Chemistry Package (NWChem) 6.6
              ------------------------------------------------------


                    Environmental Molecular Sciences Laboratory
                       Pacific Northwest National Laboratory
                                Richland, WA 99352

                              Copyright (c) 1994-2015
                       Pacific Northwest National Laboratory
                            Battelle Memorial Institute

             NWChem is an open-source computational chemistry package
                        distributed under the terms of the
                      Educational Community License (ECL) 2.0
             A copy of the license is included with this distribution
                              in the LICENSE.TXT file

                                  ACKNOWLEDGMENT
                                  --------------

            This software and its documentation were developed at the
            EMSL at Pacific Northwest National Laboratory, a multiprogram
            national laboratory, operated for the U.S. Department of Energy
            by Battelle under Contract Number DE-AC05-76RL01830. Support
            for this work was provided by the Department of Energy Office
            of Biological and Environmental Research, Office of Basic
            Energy Sciences, and the Office of Advanced Scientific Computing.


           Job information
           ---------------

    hostname        = g25
    program         = /cm/shared/NWChem/bin/nwchem
    date            = Thu Jun 23 10:34:35 2016

    compiled        = Wed_Jan_27_15:20:39_2016
    source          = /cm/shared/nwchem-6.6
    nwchem branch   = 6.6
    nwchem revision = 27746
    ga revision     = 10594
    input           = /scratch/owengray/water_scf_test4/water_scf_test4.nw
    prefix          = h2o.
    data base       = ./h2o.db
    status          = startup
    nproc           =       20
    time left       =     -1s



           Memory information
           ------------------

    heap     =  210617852 doubles =   1606.9 Mbytes
    stack    =  210617857 doubles =   1606.9 Mbytes
    global   =  421235712 doubles =   3213.8 Mbytes (distinct from heap & stack)
    total    =  842471421 doubles =   6427.5 Mbytes
    verify   = yes
    hardfail = no 


           Directory information
           ---------------------

  0 permanent = .
  0 scratch   = /scratch/owengray/water_scf_test4/




                                NWChem Input Module
                                -------------------


                             Water in STO-3G basis set
                             -------------------------
 C2V symmetry detected

          ------
          auto-z
          ------


                             Geometry "geometry" -> ""
                             -------------------------

 Output coordinates in a.u. (scale by  1.000000000 to convert to a.u.)

  No.       Tag          Charge          X              Y              Z
 ---- ---------------- ---------- -------------- -------------- --------------
    1 O                    8.0000     0.00000000     0.00000000     0.22143053
    2 H                    1.0000    -1.43042809     0.00000000    -0.88572213
    3 H                    1.0000     1.43042809     0.00000000    -0.88572213

      Atomic Mass 
      ----------- 

      O                 15.994910
      H                  1.007825


 Effective nuclear repulsion energy (a.u.)       9.1949809303

            Nuclear Dipole moment (a.u.) 
            ----------------------------
        X                 Y               Z
 ---------------- ---------------- ----------------
     0.0000000000     0.0000000000     0.0000000000

      Symmetry information
      --------------------

 Group name             C2v       
 Group number             16
 Group order               4
 No. of unique centers     2

      Symmetry unique atoms

     1    2



                                Z-matrix (autoz)
                                -------- 

 Units are Angstrom for bonds and degrees for angles

      Type          Name      I     J     K     L     M      Value
      ----------- --------  ----- ----- ----- ----- ----- ----------
    1 Stretch                  1     2                       0.95720
    2 Stretch                  1     3                       0.95720
    3 Bend                     2     1     3               104.52019


            XYZ format geometry
            -------------------
     3
 geometry
 O                     0.00000000     0.00000000     0.11717600
 H                    -0.75695000     0.00000000    -0.46870400
 H                     0.75695000     0.00000000    -0.46870400

 ==============================================================================
                                internuclear distances
 ------------------------------------------------------------------------------
       center one      |      center two      | atomic units |       a.u.
 ------------------------------------------------------------------------------
    2 H                |   1 O                |     1.80884  |     1.80884
    3 H                |   1 O                |     1.80884  |     1.80884
 ------------------------------------------------------------------------------
                         number of included internuclear distances:          2
 ==============================================================================



 ==============================================================================
                                 internuclear angles
 ------------------------------------------------------------------------------
        center 1       |       center 2       |       center 3       |  degrees
 ------------------------------------------------------------------------------
    2 H                |   1 O                |   3 H                |   104.52
 ------------------------------------------------------------------------------
                            number of included internuclear angles:          1
 ==============================================================================



  library name resolved from: environment
  library file name is: </cm/shared/NWChem/data/libraries/>
  
                      Basis "ao basis" -> "" (cartesian)
                      -----
  H (Hydrogen)
  ------------
            Exponent  Coefficients 
       -------------- ---------------------------------------------------------
  1 S  3.42525091E+00  0.154329
  1 S  6.23913730E-01  0.535328
  1 S  1.68855400E-01  0.444635

  O (Oxygen)
  ----------
            Exponent  Coefficients 
       -------------- ---------------------------------------------------------
  1 S  1.30709320E+02  0.154329
  1 S  2.38088610E+01  0.535328
  1 S  6.44360830E+00  0.444635

  2 S  5.03315130E+00 -0.099967
  2 S  1.16959610E+00  0.399513
  2 S  3.80389000E-01  0.700115

  3 P  5.03315130E+00  0.155916
  3 P  1.16959610E+00  0.607684
  3 P  3.80389000E-01  0.391957



 Summary of "ao basis" -> "" (cartesian)
 ------------------------------------------------------------------------------
       Tag                 Description            Shells   Functions and Types
 ---------------- ------------------------------  ------  ---------------------
 H                           STO-3G                  1        1   1s
 O                           STO-3G                  3        5   2s1p


                                 NWChem SCF Module
                                 -----------------


                             Water in STO-3G basis set



  ao basis        = "ao basis"
  functions       =     7
  atoms           =     3
  closed shells   =     5
  open shells     =     0
  charge          =   0.00
  wavefunction    = RHF 
  input vectors   = atomic
  output vectors  = ./h2o.movecs
  use symmetry    = T
  symmetry adapt  = T


 Summary of "ao basis" -> "ao basis" (cartesian)
 ------------------------------------------------------------------------------
       Tag                 Description            Shells   Functions and Types
 ---------------- ------------------------------  ------  ---------------------
 H                           STO-3G                  1        1   1s
 O                           STO-3G                  3        5   2s1p


      Symmetry analysis of basis
      --------------------------

        a1          4
        a2          0
        b1          2
        b2          1


 Forming initial guess at       0.1s


      Superposition of Atomic Density Guess
      -------------------------------------

 Sum of atomic energies:         -74.71095592

      Non-variational initial energy
      ------------------------------

 Total energy =     -74.684282
 1-e energy   =    -121.785558
 2-e energy   =      37.906295
 HOMO         =      -0.258522
 LUMO         =       0.505358


      Symmetry analysis of molecular orbitals - initial
      -------------------------------------------------

  Numbering of irreducible representations: 

     1 a1          2 a2          3 b1          4 b2      

  Orbital symmetries:

     1 a1          2 a1          3 b1          4 a1          5 b2      
     6 a1          7 b1      


 Starting SCF solution at       0.1s



 ----------------------------------------------
         Quadratically convergent ROHF

 Convergence threshold     :          1.000E-04
 Maximum no. of iterations :           30
 Final Fock-matrix accuracy:          1.000E-07
 ----------------------------------------------


              iter       energy          gnorm     gmax       time
             ----- ------------------- --------- --------- --------
                 1      -74.9243613403  6.49D-01  5.52D-01      0.1
                 2      -74.9620976511  1.36D-01  1.01D-01      0.1
                 3      -74.9629097937  2.06D-02  1.64D-02      0.1
                 4      -74.9629279379  5.45D-05  4.17D-05      0.1


       Final RHF  results 
       ------------------ 

         Total SCF energy =    -74.962927937888
      One-electron energy =   -122.371196612343
      Two-electron energy =     38.213287744180
 Nuclear repulsion energy =      9.194980930276

        Time for solution =      0.0s



       Symmetry analysis of molecular orbitals - final
       -----------------------------------------------

  Numbering of irreducible representations: 

     1 a1          2 a2          3 b1          4 b2      

  Orbital symmetries:

     1 a1          2 a1          3 b1          4 a1          5 b2      
     6 a1          7 b1      

             Final eigenvalues
             -----------------

              1      
    1  -20.2417
    2   -1.2684
    3   -0.6179
    4   -0.4530
    5   -0.3912
    6    0.6057
    7    0.7424

                       ROHF Final Molecular Orbital Analysis
                       -------------------------------------

 Vector    2  Occ=2.000000D+00  E=-1.268407D+00  Symmetry=a1
              MO Center=  9.0D-17,  9.7D-18, -7.2D-02, r^2= 5.4D-01
   Bfn.  Coefficient  Atom+Function         Bfn.  Coefficient  Atom+Function  
  ----- ------------  ---------------      ----- ------------  ---------------
     2      0.833482  1 O  s                  1     -0.232784  1 O  s          
     6      0.158729  2 H  s                  7      0.158729  3 H  s          

 Vector    3  Occ=2.000000D+00  E=-6.179357D-01  Symmetry=b1
              MO Center= -1.3D-15,  1.9D-31, -1.4D-01, r^2= 8.3D-01
   Bfn.  Coefficient  Atom+Function         Bfn.  Coefficient  Atom+Function  
  ----- ------------  ---------------      ----- ------------  ---------------
     3      0.606448  1 O  px                 6     -0.444997  2 H  s          
     7      0.444997  3 H  s          

 Vector    4  Occ=2.000000D+00  E=-4.529926D-01  Symmetry=a1
              MO Center=  9.6D-16, -2.1D-31,  1.6D-01, r^2= 6.2D-01
   Bfn.  Coefficient  Atom+Function         Bfn.  Coefficient  Atom+Function  
  ----- ------------  ---------------      ----- ------------  ---------------
     5      0.776751  1 O  pz                 2      0.536856  1 O  s          
     6     -0.277819  2 H  s                  7     -0.277819  3 H  s          

 Vector    5  Occ=2.000000D+00  E=-3.912415D-01  Symmetry=b2
              MO Center= -1.1D-34, -1.1D-17,  1.2D-01, r^2= 4.2D-01
   Bfn.  Coefficient  Atom+Function         Bfn.  Coefficient  Atom+Function  
  ----- ------------  ---------------      ----- ------------  ---------------
     4      1.000000  1 O  py         

 Vector    6  Occ=0.000000D+00  E= 6.056757D-01  Symmetry=a1
              MO Center=  1.6D-15,  1.6D-18, -3.9D-01, r^2= 1.1D+00
   Bfn.  Coefficient  Atom+Function         Bfn.  Coefficient  Atom+Function  
  ----- ------------  ---------------      ----- ------------  ---------------
     2      0.884777  1 O  s                  6     -0.797165  2 H  s          
     7     -0.797165  3 H  s                  5     -0.742308  1 O  pz         

 Vector    7  Occ=0.000000D+00  E= 7.424026D-01  Symmetry=b1
              MO Center= -1.3D-15, -4.6D-33, -2.3D-01, r^2= 1.0D+00
   Bfn.  Coefficient  Atom+Function         Bfn.  Coefficient  Atom+Function  
  ----- ------------  ---------------      ----- ------------  ---------------
     3      0.990602  1 O  px                 6      0.838703  2 H  s          
     7     -0.838703  3 H  s          


 center of mass
 --------------
 x =   0.00000000 y =   0.00000000 z =   0.09752365

 moments of inertia (a.u.)
 ------------------
           2.194243005950           0.000000000000           0.000000000000
           0.000000000000           6.318513896020           0.000000000000
           0.000000000000           0.000000000000           4.124270890070

  Mulliken analysis of the total density
  --------------------------------------

    Atom       Charge   Shell Charges
 -----------   ------   -------------------------------------------------------
    1 O    8     8.37   2.00  1.83  4.54
    2 H    1     0.82   0.82
    3 H    1     0.82   0.82

       Multipole analysis of the density wrt the origin
       ------------------------------------------------

     L   x y z        total         open         nuclear
     -   - - -        -----         ----         -------
     0   0 0 0     -0.000000      0.000000     10.000000

     1   1 0 0      0.000000      0.000000      0.000000
     1   0 1 0      0.000000      0.000000      0.000000
     1   0 0 1     -0.679005      0.000000      0.000000

     2   2 0 0     -3.239695      0.000000      4.092249
     2   1 1 0      0.000000      0.000000      0.000000
     2   1 0 1     -0.000000      0.000000      0.000000
     2   0 2 0     -4.530978      0.000000      0.000000
     2   0 1 1     -0.000000      0.000000      0.000000
     2   0 0 2     -4.010095      0.000000      1.961259


 Task  times  cpu:        0.1s     wall:        0.1s


                                NWChem Input Module
                                -------------------


 tddft_input: filename not found; default name will be used

                                 NWChem DFT Module
                                 -----------------


                             Water in STO-3G basis set




 Summary of "ao basis" -> "ao basis" (cartesian)
 ------------------------------------------------------------------------------
       Tag                 Description            Shells   Functions and Types
 ---------------- ------------------------------  ------  ---------------------
 H                           STO-3G                  1        1   1s
 O                           STO-3G                  3        5   2s1p


      Symmetry analysis of basis
      --------------------------

        a1          4
        a2          0
        b1          2
        b2          1

  Caching 1-el integrals 

            General Information
            -------------------
          SCF calculation type: DFT
          Wavefunction type:  closed shell.
          No. of atoms     :     3
          No. of electrons :    10
           Alpha electrons :     5
            Beta electrons :     5
          Charge           :     0
          Spin multiplicity:     1
          Use of symmetry is: off; symmetry adaption is: on 
          Maximum number of iterations:  30
          AO basis - number of functions:     7
                     number of shells:     5
          Convergence on energy requested: 1.00D-06
          Convergence on density requested: 1.00D-05
          Convergence on gradient requested: 5.00D-04

              XC Information
              --------------
                        Slater Exchange Functional  1.000 local    
                      VWN V Correlation Functional  1.000 local    

             Grid Information
             ----------------
          Grid used for XC integration:  medium    
          Radial quadrature: Mura-Knowles        
          Angular quadrature: Lebedev. 
          Tag              B.-S. Rad. Rad. Pts. Rad. Cut. Ang. Pts.
          ---              ---------- --------- --------- ---------
          O                   0.60       49           5.0       434
          H                   0.35       45           6.0       434
          Grid pruning is: on 
          Number of quadrature shells:   139
          Spatial weights used:  Erf1

          Convergence Information
          -----------------------
          Convergence aids based upon iterative change in 
          total energy or number of iterations. 
          Levelshifting, if invoked, occurs when the 
          HOMO/LUMO gap drops below (HL_TOL): 1.00D-02
          DIIS, if invoked, will attempt to extrapolate 
          using up to (NFOCK): 10 stored Fock matrices.

                    Damping( 0%)  Levelshifting(0.5)       DIIS
                  --------------- ------------------- ---------------
          dE  on:    start            ASAP                start   
          dE off:    2 iters         30 iters            30 iters 


      Screening Tolerance Information
      -------------------------------
          Density screening/tol_rho: 1.00D-10
          AO Gaussian exp screening on grid/accAOfunc:  14
          CD Gaussian exp screening on grid/accCDfunc:  20
          XC Gaussian exp screening on grid/accXCfunc:  20
          Schwarz screening/accCoul: 1.00D-08


      Superposition of Atomic Density Guess
      -------------------------------------

 Sum of atomic energies:         -74.71095592

      Non-variational initial energy
      ------------------------------

 Total energy =     -74.684282
 1-e energy   =    -121.785558
 2-e energy   =      37.906295
 HOMO         =      -0.258522
 LUMO         =       0.505358


      Symmetry analysis of molecular orbitals - initial
      -------------------------------------------------

  Numbering of irreducible representations: 

     1 a1          2 a2          3 b1          4 b2      

  Orbital symmetries:

     1 a1          2 a1          3 b1          4 a1          5 b2      
     6 a1          7 b1      

   Time after variat. SCF:      0.1
   Time prior to 1st pass:      0.1

 Grid_pts file          = /scratch/owengray/water_scf_test4//h2o.gridpts.00
 Record size in doubles =  12289        No. of grid_pts per rec  =   3070
 Max. records in memory =      3        Max. recs in file   =  50662543


           Memory utilization after 1st SCF pass: 
           Heap Space remaining (MW):      126.37           126368772
          Stack Space remaining (MW):      210.62           210617668

   convergence    iter        energy       DeltaE   RMS-Dens  Diis-err    time
 ---------------- ----- ----------------- --------- --------- ---------  ------
 d= 0,ls=0.0,diis     1    -74.6929296865 -8.39D+01  1.41D-01  2.69D-01     0.1
 d= 0,ls=0.0,diis     2    -74.6937021561 -7.72D-04  7.53D-02  2.33D-01     0.1
 d= 0,ls=0.0,diis     3    -74.7316807981 -3.80D-02  4.48D-03  1.14D-03     0.2
 d= 0,ls=0.0,diis     4    -74.7318617516 -1.81D-04  1.97D-04  9.54D-07     0.2
 d= 0,ls=0.0,diis     5    -74.7318619491 -1.98D-07  2.27D-06  1.79D-10     0.2


         Total DFT energy =      -74.731861949106
      One electron energy =     -122.408171696489
           Coulomb energy =       47.357780865057
    Exchange-Corr. energy =       -8.876452047949
 Nuclear repulsion energy =        9.194980930276

 Numeric. integr. density =       10.000000836105

     Total iterative time =      0.1s



                  Occupations of the irreducible representations
                  ----------------------------------------------

                     irrep           alpha         beta
                     --------     --------     --------
                     a1                3.0          3.0
                     a2                0.0          0.0
                     b1                1.0          1.0
                     b2                1.0          1.0


                       DFT Final Molecular Orbital Analysis
                       ------------------------------------

 Vector    1  Occ=2.000000D+00  E=-1.827077D+01  Symmetry=a1
              MO Center=  0.0D+00,  0.0D+00,  1.2D-01, r^2= 1.5D-02
   Bfn.  Coefficient  Atom+Function         Bfn.  Coefficient  Atom+Function  
  ----- ------------  ---------------      ----- ------------  ---------------
     1      0.992487  1 O  s          

 Vector    2  Occ=2.000000D+00  E=-8.311097D-01  Symmetry=a1
              MO Center=  1.2D-09, -5.2D-15, -1.4D-01, r^2= 5.4D-01
   Bfn.  Coefficient  Atom+Function         Bfn.  Coefficient  Atom+Function  
  ----- ------------  ---------------      ----- ------------  ---------------
     2      0.777671  1 O  s                  1     -0.225466  1 O  s          
     5     -0.213997  1 O  pz                 6      0.182476  2 H  s          
     7      0.182476  3 H  s          

 Vector    3  Occ=2.000000D+00  E=-3.832578D-01  Symmetry=b1
              MO Center= -1.8D-09,  1.1D-25, -1.4D-01, r^2= 8.2D-01
   Bfn.  Coefficient  Atom+Function         Bfn.  Coefficient  Atom+Function  
  ----- ------------  ---------------      ----- ------------  ---------------
     3      0.612949  1 O  px                 6     -0.439472  2 H  s          
     7      0.439472  3 H  s          

 Vector    4  Occ=2.000000D+00  E=-1.492993D-01  Symmetry=a1
              MO Center=  2.9D-10, -4.3D-15,  2.3D-01, r^2= 5.8D-01
   Bfn.  Coefficient  Atom+Function         Bfn.  Coefficient  Atom+Function  
  ----- ------------  ---------------      ----- ------------  ---------------
     5      0.751761  1 O  pz                 2      0.629334  1 O  s          
     6     -0.267475  2 H  s                  7     -0.267475  3 H  s          

 Vector    5  Occ=2.000000D+00  E=-5.740620D-02  Symmetry=b2
              MO Center=  2.9D-30,  8.7D-15,  1.2D-01, r^2= 4.2D-01
   Bfn.  Coefficient  Atom+Function         Bfn.  Coefficient  Atom+Function  
  ----- ------------  ---------------      ----- ------------  ---------------
     4      1.000000  1 O  py         

 Vector    6  Occ=0.000000D+00  E= 3.169992D-01  Symmetry=a1
              MO Center=  7.0D-10,  7.5D-16, -3.9D-01, r^2= 1.1D+00
   Bfn.  Coefficient  Atom+Function         Bfn.  Coefficient  Atom+Function  
  ----- ------------  ---------------      ----- ------------  ---------------
     2      0.874330  1 O  s                  6     -0.795598  2 H  s          
     7     -0.795598  3 H  s                  5     -0.748472  1 O  pz         

 Vector    7  Occ=0.000000D+00  E= 4.263576D-01  Symmetry=b1
              MO Center= -4.6D-10, -4.1D-27, -2.4D-01, r^2= 1.0D+00
   Bfn.  Coefficient  Atom+Function         Bfn.  Coefficient  Atom+Function  
  ----- ------------  ---------------      ----- ------------  ---------------
     3      0.986593  1 O  px                 6      0.841611  2 H  s          
     7     -0.841611  3 H  s          


 center of mass
 --------------
 x =   0.00000000 y =   0.00000000 z =   0.09752365

 moments of inertia (a.u.)
 ------------------
           2.194243005950           0.000000000000           0.000000000000
           0.000000000000           6.318513896020           0.000000000000
           0.000000000000           0.000000000000           4.124270890070

     Multipole analysis of the density
     ---------------------------------

     L   x y z        total         alpha         beta         nuclear
     -   - - -        -----         -----         ----         -------
     0   0 0 0     -0.000000     -5.000000     -5.000000     10.000000

     1   1 0 0      0.000000      0.000000      0.000000      0.000000
     1   0 1 0      0.000000      0.000000      0.000000      0.000000
     1   0 0 1     -0.680424     -0.340212     -0.340212      0.000000

     2   2 0 0     -3.215740     -3.653994     -3.653994      4.092249
     2   1 1 0      0.000000      0.000000      0.000000      0.000000
     2   1 0 1     -0.000000     -0.000000     -0.000000      0.000000
     2   0 2 0     -4.528981     -2.264490     -2.264490      0.000000
     2   0 1 1     -0.000000     -0.000000     -0.000000      0.000000
     2   0 0 2     -3.993694     -2.977476     -2.977476      1.961259

 nwchem basis set
 ics=  1 ib=  0 nat=  1 shz=  1 gc=  0 ie=  3 lcf=  1 fcf=  0 type= 1
 ics=  2 ib=  3 nat=  1 shz=  1 gc=  0 ie=  6 lcf=  2 fcf=  1 type= 1
 ics=  3 ib=  6 nat=  1 shz=  3 gc=  0 ie=  9 lcf=  5 fcf=  2 type= 2
 ics=  4 ib=  9 nat=  2 shz=  1 gc=  0 ie= 12 lcf=  6 fcf=  5 type= 1
 ics=  5 ib= 12 nat=  3 shz=  1 gc=  0 ie= 15 lcf=  7 fcf=  6 type= 1
 texas basis set
 ics=  1 ib=  9 nat=  2 shz=  1 gc=  0 ie= 12 lcf=  1 fcf=  0 type= 1
 ics=  2 ib= 12 nat=  3 shz=  1 gc=  0 ie= 15 lcf=  2 fcf=  1 type= 1
 ics=  3 ib=  3 nat=  1 shz=  1 gc=  0 ie=  6 lcf=  3 fcf=  2 type= 1
 ics=  4 ib=  0 nat=  1 shz=  1 gc=  0 ie=  3 lcf=  4 fcf=  3 type= 1
 ics=  5 ib=  6 nat=  1 shz=  3 gc=  0 ie=  9 lcf=  7 fcf=  4 type= 2
 translation shell-nwchem -> shell-texas
                    1                    4
                    2                    3
                    3                    5
                    4                    1
                    5                    2

 Schwarz integral screening summary 
 ---------------------------------- 

        No. of atom pairs =       6
       No. of shell pairs =      15

 Atomic screening 

   value      no.     value      no.     value      no.     value      no.   
  -------- ------    -------- ------    -------- ------    -------- ------   
  0.00D+00      0    1.00D-13      0    1.00D-12      0    1.00D-11      0
  1.00D-10      0    1.00D-09      0    1.00D-08      0    1.00D-07      0
  1.00D-06      0    1.00D-05      0    1.00D-04      0    1.00D-03      0
  1.00D-02      0    1.00D-01      1    1.00D+00      5    1.00D+01      0


 Shell screening 

   value      no.     value      no.     value      no.     value      no.   
  -------- ------    -------- ------    -------- ------    -------- ------   
  0.00D+00      0    1.00D-13      0    1.00D-12      0    1.00D-11      0
  1.00D-10      0    1.00D-09      0    1.00D-08      0    1.00D-07      0
  1.00D-06      0    1.00D-05      0    1.00D-04      0    1.00D-03      0
  1.00D-02      0    1.00D-01      4    1.00D+00     11    1.00D+01      0



 Setting fock-build task_bf   :      -1
                    maxquartet:   10000
                    maxeri    :  129600
                    maxscr    :       0
                    intacc    : 0.0D+00
                    denscreen : T
                    dentol    : 1.0D-06


 Read molecular orbitals from ./h2o.movecs


 Eigenvalues
-------------------------

              1
    1 -18.27077
    2  -0.83111
    3  -0.38326
    4  -0.14930
    5  -0.05741
    6   0.31700
    7   0.42636
-------------------------


 Occupancies
-------------------------

              1
    1   2.00000
    2   2.00000
    3   2.00000
    4   2.00000
    5   2.00000
    6   0.00000
    7   0.00000
-------------------------


 global array: MO eigenvectors[1:7,1:7],  handle: -1000 

            1           2           3           4           5           6  
       ----------- ----------- ----------- ----------- ----------- -----------
   1       0.99249    -0.22547     0.00000    -0.13087    -0.00000    -0.13290
   2       0.03401     0.77767    -0.00000     0.62933     0.00000     0.87433
   3       0.00000     0.00000     0.61295    -0.00000     0.00000     0.00000
   4       0.00000    -0.00000    -0.00000    -0.00000     1.00000     0.00000
   5      -0.00540    -0.21400     0.00000     0.75176     0.00000    -0.74847
   6      -0.00834     0.18248    -0.43947    -0.26748     0.00000    -0.79560
   7      -0.00834     0.18248     0.43947    -0.26748     0.00000    -0.79560

            7  
       -----------
   1       0.00000
   2      -0.00000
   3       0.98659
   4       0.00000
   5       0.00000
   6       0.84161
   7      -0.84161
 Spin                     1
  orbital                    1 a1  
  orbital                    2 a1  
  orbital                    3 b1  
  orbital                    4 a1  
  orbital                    5 b2  
  orbital                    6 a1  
  orbital                    7 b1  
                                NWChem TDDFT Module
                                -------------------


                             Water in STO-3G basis set


            General Information
            -------------------
           No. of orbitals :    14
            Alpha orbitals :     7
             Beta orbitals :     7
        Alpha frozen cores :     0
         Beta frozen cores :     0
     Alpha frozen virtuals :     0
      Beta frozen virtuals :     0
         Spin multiplicity :     1
    Number of AO functions :     7
        Use of symmetry is : off
      Symmetry adaption is : on 
         Schwarz screening : 0.10D-07

              XC Information
              --------------
                 Slater Exchange Functional   1.00 local    
               VWN V Correlation Functional   1.00 local    

             TDDFT Information
             -----------------
          Calculation type : Tamm-Dancoff TDDFT
         Wavefunction type : Restricted singlets
          No. of electrons :    10
           Alpha electrons :     5
            Beta electrons :     5
              No. of roots :     1
          Max subspacesize :  4200
            Max iterations :   100
               Target root :     1
           Target symmetry : none
      Symmetry restriction : off
                 Algorithm : Optimal
        Davidson threshold : 0.10D-03

            Memory Information
            ------------------
          Available GA space size is        8424714191 doubles
          Available MA space size is         337023452 doubles
          Length of a trial vector is           10
          Algorithm : Incore multiple tensor contraction
          Estimated peak GA usage is            126549 doubles
          Estimated peak MA usage is               600 doubles
  Memleft= 421227263 doubles
 Ground state symmetry a1  

    1 smallest eigenvalue differences (eV) 
--------------------------------------------------------
  No. Spin  Occ  Vir  Irrep   E(Occ)    E(Vir)   E(Diff)
--------------------------------------------------------
    1    1    5    6 b2       -0.057     0.317    10.188
--------------------------------------------------------
          Number of initial trial vectors generated        1

Vector    1
 Spin  Occ  Vir     X+Y
    1    1    6   0.00000
    1    1    7   0.00000
    1    2    6   0.00000
    1    2    7   0.00000
    1    3    6   0.00000
    1    3    7   0.00000
    1    4    6   0.00000
    1    4    7   0.00000
    1    5    6   1.00000
    1    5    7   0.00000

  Entering Davidson iterations
  Restricted singlet excited states

  Iter   NTrls   NConv    DeltaV     DeltaE      Time   
  ----  ------  ------  ---------  ---------  --------- 

 global array: Trial density[1:7,1:7],  handle: -997 

            1           2           3           4           5           6  
       ----------- ----------- ----------- ----------- ----------- -----------
   1       0.00000    -0.00000    -0.00000    -0.13290    -0.00000    -0.00000
   2      -0.00000     0.00000     0.00000     0.87433     0.00000     0.00000
   3      -0.00000     0.00000     0.00000     0.00000     0.00000     0.00000
   4      -0.00000     0.00000     0.00000     0.00000     0.00000     0.00000
   5       0.00000    -0.00000    -0.00000    -0.74847    -0.00000    -0.00000
   6       0.00000    -0.00000    -0.00000    -0.79560    -0.00000    -0.00000
   7       0.00000    -0.00000    -0.00000    -0.79560    -0.00000    -0.00000

            7  
       -----------
   1      -0.00000
   2       0.00000
   3       0.00000
   4       0.00000
   5      -0.00000
   6      -0.00000
   7      -0.00000
             Transform       0.0 CPU seconds       0.0 Wall seconds
  Memleft= 421227156 doubles

 global array: Work sym[1:1,1:7,1:7],  handle: -992 

 -- patch: Work sym[1:1,1:7,1]

            1           2           3           4           5           6  
       ----------- ----------- ----------- ----------- ----------- -----------
   1       0.00000    -0.00000    -0.00000    -0.13290    -0.00000     0.00000

            7  
       -----------
   1       0.00000

 -- patch: Work sym[1:1,1:7,2]

            1           2           3           4           5           6  
       ----------- ----------- ----------- ----------- ----------- -----------
   1      -0.00000     0.00000     0.00000     0.87433     0.00000    -0.00000

            7  
       -----------
   1      -0.00000

 -- patch: Work sym[1:1,1:7,3]

            1           2           3           4           5           6  
       ----------- ----------- ----------- ----------- ----------- -----------
   1      -0.00000     0.00000     0.00000     0.00000    -0.00000    -0.00000

            7  
       -----------
   1      -0.00000

 -- patch: Work sym[1:1,1:7,4]

            1           2           3           4           5           6  
       ----------- ----------- ----------- ----------- ----------- -----------
   1      -0.13290     0.87433     0.00000     0.00000    -0.74847    -0.79560

            7  
       -----------
   1      -0.79560

 -- patch: Work sym[1:1,1:7,5]

            1           2           3           4           5           6  
       ----------- ----------- ----------- ----------- ----------- -----------
   1      -0.00000     0.00000    -0.00000    -0.74847    -0.00000    -0.00000

            7  
       -----------
   1      -0.00000

 -- patch: Work sym[1:1,1:7,6]

            1           2           3           4           5           6  
       ----------- ----------- ----------- ----------- ----------- -----------
   1       0.00000    -0.00000    -0.00000    -0.79560    -0.00000    -0.00000

            7  
       -----------
   1      -0.00000

 -- patch: Work sym[1:1,1:7,7]

            1           2           3           4           5           6  
       ----------- ----------- ----------- ----------- ----------- -----------
   1       0.00000    -0.00000    -0.00000    -0.79560    -0.00000    -0.00000

            7  
       -----------
   1      -0.00000
  shmap   4     5     1     2     3
  type       2048     2048     2049     2081  1050689
 nshblocks   4   blen  7  maxsh 10
  shglo   1     3     4     5
  shghi   2     3     4     5
  bfglo   1     3     4     5
  bfghi   2     3     4     7
  bfmap   6     7     1     2     3     4     5
 rbfmap   3     4     5     6     7     1     2
 shbflo   1     2     3     4     5
 shbfhi   1     2     3     4     7
  xcnewfock nder                     0  nfock                     1  ndens                     1
  xcnewfock nder                     0  nfock                     1  ndens                     1
  xcnewfock nder                     0  nfock                     1  ndens                     1
  xcnewfock nder                     0  nfock                     1  ndens                     1
  xcnewfock nder                     0  nfock                     1  ndens                     1
  xcnewfock nder                     0  nfock                     1  ndens                     1
  xcnewfock nder                     0  nfock                     1  ndens                     1
  xcnewfock nder                     0  nfock                     1  ndens                     1
  xcnewfock nder                     0  nfock                     1  ndens                     1
  xcnewfock nder                     0  nfock                     1  ndens                     1
  xcnewfock nder                     0  nfock                     1  ndens                     1
  xcnewfock nder                     0  nfock                     1  ndens                     1
  xcnewfock nder                     0  nfock                     1  ndens                     1
  xcnewfock nder                     0  nfock                     1  ndens                     1
  xcnewfock nder                     0  nfock                     1  ndens                     1
  xcnewfock nder                     0  nfock                     1  ndens                     1
  xcnewfock nder                     0  nfock                     1  ndens                     1
  xcnewfock nder                     0  nfock                     1  ndens                     1
  xcnewfock nder                     0  nfock                     1  ndens                     1
  xcnewfock nder                     0  nfock                     1  ndens                     1
 --------Entered fock_xc-------------
  calc_type =                    2
  nfock                     1  ndens                     1
  nfock_xc                     1
  l3d  T
  triplet  F

 Read molecular orbitals from ./h2o.movecs

  grid_file: opening /scratch/owengray/water_scf_test4//h2o.gridpts.02
  grid_file: grinfo opening /scratch/owengray/water_scf_test4//h2o.grinfo.02                                                                                                                                                                                                                
 1fdg in                    -1
1INFO read from /scratch/owengray/water_scf_test4//h2o.grinfo.02 enuc 0.91949809E+01
  grid_file: enucs    9.1949809302755270        9.1949809302755270     
  readin mxfilerec from /scratch/owengray/water_scf_test4//h2o.grinfo.02                                                                                                                                                                                                                
 2fdg in                    -1
 2INFO read from /scratch/owengray/water_scf_test4//h2o.grinfo.02  mxcrec                    3   nrecfil                    2   flopend  T
  grid_file: rewinding /scratch/owengray/water_scf_test4//h2o.gridpts.02
  in: alloc fd         5864103894411  size in dbl              84211335
  out: alloc fd         5864103894411  size in dbl              84211335
  *** grid_quadv0: calc_type:                    2
  *** grid_quadv0: grid_written: T
  *** grid_quadv0: grad: F
  *** grid_quadv0: kske: F
  *** grid_quadv0: do_scf: F
  *** grid_quadv0: n_per_rec:                 3070
  grid_file: rewinding /scratch/owengray/water_scf_test4//h2o.gridpts.02
 4fd in         5864103894411
 grid_file: read   1050 grid_pts in record     1 of      2.
  grid_file read: nqpts,nctr,n_in_rec,next_value                 1049                    1                 1050                    2
  grid_file: opening /scratch/owengray/water_scf_test4//h2o.gridpts.03
  grid_file: grinfo opening /scratch/owengray/water_scf_test4//h2o.grinfo.03                                                                                                                                                                                                                
 1fdg in                    -1
1INFO read from /scratch/owengray/water_scf_test4//h2o.grinfo.03 enuc 0.91949809E+01
  grid_file: enucs    9.1949809302755270        9.1949809302755270     
  readin mxfilerec from /scratch/owengray/water_scf_test4//h2o.grinfo.03                                                                                                                                                                                                                
 2fdg in                    -1
 2INFO read from /scratch/owengray/water_scf_test4//h2o.grinfo.03  mxcrec                    3   nrecfil                    2   flopend  T
  grid_file: rewinding /scratch/owengray/water_scf_test4//h2o.gridpts.03
  in: alloc fd         5864103894411  size in dbl              84211335
  out: alloc fd         5864103894411  size in dbl              84211335
  *** grid_quadv0: calc_type:                    2
  *** grid_quadv0: grid_written: T
  *** grid_quadv0: grad: F
  *** grid_quadv0: kske: F
  *** grid_quadv0: do_scf: F
  *** grid_quadv0: n_per_rec:                 3070
  grid_file: rewinding /scratch/owengray/water_scf_test4//h2o.gridpts.03
 4fd in         5864103894411
 grid_file: read   1112 grid_pts in record     1 of      2.
  grid_file read: nqpts,nctr,n_in_rec,next_value                 1111                    1                 1112                    2
  grid_file: opening /scratch/owengray/water_scf_test4//h2o.gridpts.04
  grid_file: grinfo opening /scratch/owengray/water_scf_test4//h2o.grinfo.04                                                                                                                                                                                                                
 1fdg in                    -1
1INFO read from /scratch/owengray/water_scf_test4//h2o.grinfo.04 enuc 0.91949809E+01
  grid_file: enucs    9.1949809302755270        9.1949809302755270     
  readin mxfilerec from /scratch/owengray/water_scf_test4//h2o.grinfo.04                                                                                                                                                                                                                
 2fdg in                    -1
 2INFO read from /scratch/owengray/water_scf_test4//h2o.grinfo.04  mxcrec                    3   nrecfil                    2   flopend  T
  grid_file: rewinding /scratch/owengray/water_scf_test4//h2o.gridpts.04
  in: alloc fd         5864103894411  size in dbl              84211335
  out: alloc fd         5864103894411  size in dbl              84211335
  *** grid_quadv0: calc_type:                    2
  *** grid_quadv0: grid_written: T
  *** grid_quadv0: grad: F
  *** grid_quadv0: kske: F
  *** grid_quadv0: do_scf: F
  *** grid_quadv0: n_per_rec:                 3070
  grid_file: rewinding /scratch/owengray/water_scf_test4//h2o.gridpts.04
 4fd in         5864103894411
 grid_file: read    961 grid_pts in record     1 of      2.
  grid_file read: nqpts,nctr,n_in_rec,next_value                  960                    1                  961                    2
  grid_file: opening /scratch/owengray/water_scf_test4//h2o.gridpts.05
  grid_file: grinfo opening /scratch/owengray/water_scf_test4//h2o.grinfo.05                                                                                                                                                                                                                
 1fdg in                    -1
1INFO read from /scratch/owengray/water_scf_test4//h2o.grinfo.05 enuc 0.91949809E+01
  grid_file: enucs    9.1949809302755270        9.1949809302755270     
  readin mxfilerec from /scratch/owengray/water_scf_test4//h2o.grinfo.05                                                                                                                                                                                                                
 2fdg in                    -1
 2INFO read from /scratch/owengray/water_scf_test4//h2o.grinfo.05  mxcrec                    3   nrecfil                    2   flopend  T
  grid_file: rewinding /scratch/owengray/water_scf_test4//h2o.gridpts.05
  in: alloc fd         5864103894411  size in dbl              84211335
  out: alloc fd         5864103894411  size in dbl              84211335
  *** grid_quadv0: calc_type:                    2
  *** grid_quadv0: grid_written: T
  *** grid_quadv0: grad: F
  *** grid_quadv0: kske: F
  *** grid_quadv0: do_scf: F
  *** grid_quadv0: n_per_rec:                 3070
  grid_file: rewinding /scratch/owengray/water_scf_test4//h2o.gridpts.05
 4fd in         5864103894411
 grid_file: read    961 grid_pts in record     1 of      2.
  grid_file read: nqpts,nctr,n_in_rec,next_value                  960                    1                  961                    2
  grid_file: opening /scratch/owengray/water_scf_test4//h2o.gridpts.06
  grid_file: grinfo opening /scratch/owengray/water_scf_test4//h2o.grinfo.06                                                                                                                                                                                                                
 1fdg in                    -1
1INFO read from /scratch/owengray/water_scf_test4//h2o.grinfo.06 enuc 0.91949809E+01
  grid_file: enucs    9.1949809302755270        9.1949809302755270     
  readin mxfilerec from /scratch/owengray/water_scf_test4//h2o.grinfo.06                                                                                                                                                                                                                
 2fdg in                    -1
 2INFO read from /scratch/owengray/water_scf_test4//h2o.grinfo.06  mxcrec                    3   nrecfil                    3   flopend  T
  grid_file: rewinding /scratch/owengray/water_scf_test4//h2o.gridpts.06
  in: alloc fd         5864103894411  size in dbl              84211335
  out: alloc fd         5864103894411  size in dbl              84211335
  *** grid_quadv0: calc_type:                    2
  *** grid_quadv0: grid_written: T
  *** grid_quadv0: grad: F
  *** grid_quadv0: kske: F
  *** grid_quadv0: do_scf: F
  *** grid_quadv0: n_per_rec:                 3070
  grid_file: rewinding /scratch/owengray/water_scf_test4//h2o.gridpts.06
 4fd in         5864103894411
 grid_file: read    137 grid_pts in record     1 of      3.
  grid_file read: nqpts,nctr,n_in_rec,next_value                  136                    1                  137                    2
  grid_file: opening /scratch/owengray/water_scf_test4//h2o.gridpts.07
  grid_file: grinfo opening /scratch/owengray/water_scf_test4//h2o.grinfo.07                                                                                                                                                                                                                
 1fdg in                    -1
1INFO read from /scratch/owengray/water_scf_test4//h2o.grinfo.07 enuc 0.91949809E+01
  grid_file: enucs    9.1949809302755270        9.1949809302755270     
  readin mxfilerec from /scratch/owengray/water_scf_test4//h2o.grinfo.07                                                                                                                                                                                                                
 2fdg in                    -1
 2INFO read from /scratch/owengray/water_scf_test4//h2o.grinfo.07  mxcrec                    3   nrecfil                    3   flopend  T
  grid_file: rewinding /scratch/owengray/water_scf_test4//h2o.gridpts.07
  in: alloc fd         5864103894411  size in dbl              84211335
  out: alloc fd         5864103894411  size in dbl              84211335
  *** grid_quadv0: calc_type:                    2
  *** grid_quadv0: grid_written: T
  *** grid_quadv0: grad: F
  *** grid_quadv0: kske: F
  *** grid_quadv0: do_scf: F
  *** grid_quadv0: n_per_rec:                 3070
  grid_file: rewinding /scratch/owengray/water_scf_test4//h2o.gridpts.07
 4fd in         5864103894411
 grid_file: read     72 grid_pts in record     1 of      3.
  grid_file read: nqpts,nctr,n_in_rec,next_value                   71                    1                   72                    2
  grid_file: opening /scratch/owengray/water_scf_test4//h2o.gridpts.08
  grid_file: grinfo opening /scratch/owengray/water_scf_test4//h2o.grinfo.08                                                                                                                                                                                                                
 1fdg in                    -1
1INFO read from /scratch/owengray/water_scf_test4//h2o.grinfo.08 enuc 0.91949809E+01
  grid_file: enucs    9.1949809302755270        9.1949809302755270     
  readin mxfilerec from /scratch/owengray/water_scf_test4//h2o.grinfo.08                                                                                                                                                                                                                
 2fdg in                    -1
 2INFO read from /scratch/owengray/water_scf_test4//h2o.grinfo.08  mxcrec                    3   nrecfil                    3   flopend  T
  grid_file: rewinding /scratch/owengray/water_scf_test4//h2o.gridpts.08
  in: alloc fd         5864103894411  size in dbl              84211335
  out: alloc fd         5864103894411  size in dbl              84211335
  *** grid_quadv0: calc_type:                    2
  *** grid_quadv0: grid_written: T
  *** grid_quadv0: grad: F
  *** grid_quadv0: kske: F
  *** grid_quadv0: do_scf: F
  *** grid_quadv0: n_per_rec:                 3070
  grid_file: rewinding /scratch/owengray/water_scf_test4//h2o.gridpts.08
 4fd in         5864103894411
 grid_file: read    233 grid_pts in record     1 of      3.
  grid_file read: nqpts,nctr,n_in_rec,next_value                  232                    1                  233                    2
  grid_file: opening /scratch/owengray/water_scf_test4//h2o.gridpts.09
  grid_file: grinfo opening /scratch/owengray/water_scf_test4//h2o.grinfo.09                                                                                                                                                                                                                
 1fdg in                    -1
1INFO read from /scratch/owengray/water_scf_test4//h2o.grinfo.09 enuc 0.91949809E+01
  grid_file: enucs    9.1949809302755270        9.1949809302755270     
  readin mxfilerec from /scratch/owengray/water_scf_test4//h2o.grinfo.09                                                                                                                                                                                                                
 2fdg in                    -1
 2INFO read from /scratch/owengray/water_scf_test4//h2o.grinfo.09  mxcrec                    3   nrecfil                    3   flopend  T
  grid_file: rewinding /scratch/owengray/water_scf_test4//h2o.gridpts.09
  in: alloc fd         5864103894411  size in dbl              84211335
  out: alloc fd         5864103894411  size in dbl              84211335
  *** grid_quadv0: calc_type:                    2
  *** grid_quadv0: grid_written: T
  *** grid_quadv0: grad: F
  *** grid_quadv0: kske: F
  *** grid_quadv0: do_scf: F
  *** grid_quadv0: n_per_rec:                 3070
  grid_file: rewinding /scratch/owengray/water_scf_test4//h2o.gridpts.09
 4fd in         5864103894411
 grid_file: read    217 grid_pts in record     1 of      3.
  grid_file read: nqpts,nctr,n_in_rec,next_value                  216                    1                  217                    2
  grid_file: opening /scratch/owengray/water_scf_test4//h2o.gridpts.10
  grid_file: grinfo opening /scratch/owengray/water_scf_test4//h2o.grinfo.10                                                                                                                                                                                                                
 1fdg in                    -1
1INFO read from /scratch/owengray/water_scf_test4//h2o.grinfo.10 enuc 0.91949809E+01
  grid_file: enucs    9.1949809302755270        9.1949809302755270     
  readin mxfilerec from /scratch/owengray/water_scf_test4//h2o.grinfo.10                                                                                                                                                                                                                
 2fdg in                    -1
 2INFO read from /scratch/owengray/water_scf_test4//h2o.grinfo.10  mxcrec                    3   nrecfil                    2   flopend  T
  grid_file: rewinding /scratch/owengray/water_scf_test4//h2o.gridpts.10
  in: alloc fd         5864103894411  size in dbl              84211335
  out: alloc fd         5864103894411  size in dbl              84211335
  *** grid_quadv0: calc_type:                    2
  *** grid_quadv0: grid_written: T
  *** grid_quadv0: grad: F
  *** grid_quadv0: kske: F
  *** grid_quadv0: do_scf: F
  *** grid_quadv0: n_per_rec:                 3070
  grid_file: rewinding /scratch/owengray/water_scf_test4//h2o.gridpts.10
 4fd in         5864103894411
 grid_file: read   1222 grid_pts in record     1 of      2.
  grid_file read: nqpts,nctr,n_in_rec,next_value                 1221                    1                 1222                    2
  grid_file: opening /scratch/owengray/water_scf_test4//h2o.gridpts.11
  grid_file: grinfo opening /scratch/owengray/water_scf_test4//h2o.grinfo.11                                                                                                                                                                                                                
 1fdg in                    -1
1INFO read from /scratch/owengray/water_scf_test4//h2o.grinfo.11 enuc 0.91949809E+01
  grid_file: enucs    9.1949809302755270        9.1949809302755270     
  readin mxfilerec from /scratch/owengray/water_scf_test4//h2o.grinfo.11                                                                                                                                                                                                                
 2fdg in                    -1
 2INFO read from /scratch/owengray/water_scf_test4//h2o.grinfo.11  mxcrec                    3   nrecfil                    3   flopend  T
  grid_file: rewinding /scratch/owengray/water_scf_test4//h2o.gridpts.11
  in: alloc fd         5864103894411  size in dbl              84211335
  out: alloc fd         5864103894411  size in dbl              84211335
  *** grid_quadv0: calc_type:                    2
  *** grid_quadv0: grid_written: T
  *** grid_quadv0: grad: F
  *** grid_quadv0: kske: F
  *** grid_quadv0: do_scf: F
  *** grid_quadv0: n_per_rec:                 3070
  grid_file: rewinding /scratch/owengray/water_scf_test4//h2o.gridpts.11
 4fd in         5864103894411
 grid_file: read     63 grid_pts in record     1 of      3.
  grid_file read: nqpts,nctr,n_in_rec,next_value                   62                    1                   63                    2
  grid_file: opening /scratch/owengray/water_scf_test4//h2o.gridpts.12
  grid_file: grinfo opening /scratch/owengray/water_scf_test4//h2o.grinfo.12                                                                                                                                                                                                                
 1fdg in                    -1
1INFO read from /scratch/owengray/water_scf_test4//h2o.grinfo.12 enuc 0.91949809E+01
  grid_file: enucs    9.1949809302755270        9.1949809302755270     
  readin mxfilerec from /scratch/owengray/water_scf_test4//h2o.grinfo.12                                                                                                                                                                                                                
 2fdg in                    -1
 2INFO read from /scratch/owengray/water_scf_test4//h2o.grinfo.12  mxcrec                    3   nrecfil                    2   flopend  T
  grid_file: rewinding /scratch/owengray/water_scf_test4//h2o.gridpts.12
  in: alloc fd         5864103894411  size in dbl              84211335
  out: alloc fd         5864103894411  size in dbl              84211335
  *** grid_quadv0: calc_type:                    2
  *** grid_quadv0: grid_written: T
  *** grid_quadv0: grad: F
  *** grid_quadv0: kske: F
  *** grid_quadv0: do_scf: F
  *** grid_quadv0: n_per_rec:                 3070
  grid_file: rewinding /scratch/owengray/water_scf_test4//h2o.gridpts.12
 4fd in         5864103894411
 grid_file: read    899 grid_pts in record     1 of      2.
  grid_file read: nqpts,nctr,n_in_rec,next_value                  898                    1                  899                    2
  grid_file: opening /scratch/owengray/water_scf_test4//h2o.gridpts.13
  grid_file: grinfo opening /scratch/owengray/water_scf_test4//h2o.grinfo.13                                                                                                                                                                                                                
 1fdg in                    -1
1INFO read from /scratch/owengray/water_scf_test4//h2o.grinfo.13 enuc 0.91949809E+01
  grid_file: enucs    9.1949809302755270        9.1949809302755270     
  readin mxfilerec from /scratch/owengray/water_scf_test4//h2o.grinfo.13                                                                                                                                                                                                                
 2fdg in                    -1
 2INFO read from /scratch/owengray/water_scf_test4//h2o.grinfo.13  mxcrec                    3   nrecfil                    3   flopend  T
  grid_file: rewinding /scratch/owengray/water_scf_test4//h2o.gridpts.13
  in: alloc fd         5864103894411  size in dbl              84211335
  out: alloc fd         5864103894411  size in dbl              84211335
  *** grid_quadv0: calc_type:                    2
  *** grid_quadv0: grid_written: T
  *** grid_quadv0: grad: F
  *** grid_quadv0: kske: F
  *** grid_quadv0: do_scf: F
  *** grid_quadv0: n_per_rec:                 3070
  grid_file: rewinding /scratch/owengray/water_scf_test4//h2o.gridpts.13
 4fd in         5864103894411
 grid_file: read     62 grid_pts in record     1 of      3.
  grid_file read: nqpts,nctr,n_in_rec,next_value                   61                    1                   62                    2
  grid_file: opening /scratch/owengray/water_scf_test4//h2o.gridpts.14
  grid_file: grinfo opening /scratch/owengray/water_scf_test4//h2o.grinfo.14                                                                                                                                                                                                                
 1fdg in                    -1
1INFO read from /scratch/owengray/water_scf_test4//h2o.grinfo.14 enuc 0.91949809E+01
  grid_file: enucs    9.1949809302755270        9.1949809302755270     
  readin mxfilerec from /scratch/owengray/water_scf_test4//h2o.grinfo.14                                                                                                                                                                                                                
 2fdg in                    -1
 2INFO read from /scratch/owengray/water_scf_test4//h2o.grinfo.14  mxcrec                    3   nrecfil                    2   flopend  T
  grid_file: rewinding /scratch/owengray/water_scf_test4//h2o.gridpts.14
  in: alloc fd         5864103894411  size in dbl              84211335
  out: alloc fd         5864103894411  size in dbl              84211335
  *** grid_quadv0: calc_type:                    2
  *** grid_quadv0: grid_written: T
  *** grid_quadv0: grad: F
  *** grid_quadv0: kske: F
  *** grid_quadv0: do_scf: F
  *** grid_quadv0: n_per_rec:                 3070
  grid_file: rewinding /scratch/owengray/water_scf_test4//h2o.gridpts.14
 4fd in         5864103894411
 grid_file: read   1029 grid_pts in record     1 of      2.
  grid_file read: nqpts,nctr,n_in_rec,next_value                 1028                    1                 1029                    2
  grid_file: opening /scratch/owengray/water_scf_test4//h2o.gridpts.15
  grid_file: grinfo opening /scratch/owengray/water_scf_test4//h2o.grinfo.15                                                                                                                                                                                                                
 1fdg in                    -1
1INFO read from /scratch/owengray/water_scf_test4//h2o.grinfo.15 enuc 0.91949809E+01
  grid_file: enucs    9.1949809302755270        9.1949809302755270     
  readin mxfilerec from /scratch/owengray/water_scf_test4//h2o.grinfo.15                                                                                                                                                                                                                
 2fdg in                    -1
 2INFO read from /scratch/owengray/water_scf_test4//h2o.grinfo.15  mxcrec                    3   nrecfil                    3   flopend  T
  grid_file: rewinding /scratch/owengray/water_scf_test4//h2o.gridpts.15
  in: alloc fd         5864103894411  size in dbl              84211335
  out: alloc fd         5864103894411  size in dbl              84211335
  *** grid_quadv0: calc_type:                    2
  *** grid_quadv0: grid_written: T
  *** grid_quadv0: grad: F
  *** grid_quadv0: kske: F
  *** grid_quadv0: do_scf: F
  *** grid_quadv0: n_per_rec:                 3070
  grid_file: rewinding /scratch/owengray/water_scf_test4//h2o.gridpts.15
 4fd in         5864103894411
 grid_file: read    186 grid_pts in record     1 of      3.
  grid_file read: nqpts,nctr,n_in_rec,next_value                  185                    1                  186                    2
  grid_file: opening /scratch/owengray/water_scf_test4//h2o.gridpts.16
  grid_file: grinfo opening /scratch/owengray/water_scf_test4//h2o.grinfo.16                                                                                                                                                                                                                
 1fdg in                    -1
1INFO read from /scratch/owengray/water_scf_test4//h2o.grinfo.16 enuc 0.91949809E+01
  grid_file: enucs    9.1949809302755270        9.1949809302755270     
  readin mxfilerec from /scratch/owengray/water_scf_test4//h2o.grinfo.16                                                                                                                                                                                                                
 2fdg in                    -1
 2INFO read from /scratch/owengray/water_scf_test4//h2o.grinfo.16  mxcrec                    3   nrecfil                    2   flopend  T
  grid_file: rewinding /scratch/owengray/water_scf_test4//h2o.gridpts.16
  in: alloc fd         5864103894411  size in dbl              84211335
  out: alloc fd         5864103894411  size in dbl              84211335
  *** grid_quadv0: calc_type:                    2
  *** grid_quadv0: grid_written: T
  *** grid_quadv0: grad: F
  *** grid_quadv0: kske: F
  *** grid_quadv0: do_scf: F
  *** grid_quadv0: n_per_rec:                 3070
  grid_file: rewinding /scratch/owengray/water_scf_test4//h2o.gridpts.16
 4fd in         5864103894411
 grid_file: read    852 grid_pts in record     1 of      2.
  grid_file read: nqpts,nctr,n_in_rec,next_value                  851                    1                  852                    2
  grid_file: opening /scratch/owengray/water_scf_test4//h2o.gridpts.17
  grid_file: grinfo opening /scratch/owengray/water_scf_test4//h2o.grinfo.17                                                                                                                                                                                                                
 1fdg in                    -1
1INFO read from /scratch/owengray/water_scf_test4//h2o.grinfo.17 enuc 0.91949809E+01
  grid_file: enucs    9.1949809302755270        9.1949809302755270     
  readin mxfilerec from /scratch/owengray/water_scf_test4//h2o.grinfo.17                                                                                                                                                                                                                
 2fdg in                    -1
 2INFO read from /scratch/owengray/water_scf_test4//h2o.grinfo.17  mxcrec                    3   nrecfil                    3   flopend  T
  grid_file: rewinding /scratch/owengray/water_scf_test4//h2o.gridpts.17
  in: alloc fd         5864103894411  size in dbl              84211335
  out: alloc fd         5864103894411  size in dbl              84211335
  *** grid_quadv0: calc_type:                    2
  *** grid_quadv0: grid_written: T
  *** grid_quadv0: grad: F
  *** grid_quadv0: kske: F
  *** grid_quadv0: do_scf: F
  *** grid_quadv0: n_per_rec:                 3070
  grid_file: rewinding /scratch/owengray/water_scf_test4//h2o.gridpts.17
 4fd in         5864103894411
 grid_file: read    223 grid_pts in record     1 of      3.
  grid_file read: nqpts,nctr,n_in_rec,next_value                  222                    1                  223                    2
  grid_file: opening /scratch/owengray/water_scf_test4//h2o.gridpts.18
  grid_file: grinfo opening /scratch/owengray/water_scf_test4//h2o.grinfo.18                                                                                                                                                                                                                
 1fdg in                    -1
1INFO read from /scratch/owengray/water_scf_test4//h2o.grinfo.18 enuc 0.91949809E+01
  grid_file: enucs    9.1949809302755270        9.1949809302755270     
  readin mxfilerec from /scratch/owengray/water_scf_test4//h2o.grinfo.18                                                                                                                                                                                                                
 2fdg in                    -1
 2INFO read from /scratch/owengray/water_scf_test4//h2o.grinfo.18  mxcrec                    3   nrecfil                    3   flopend  T
  grid_file: rewinding /scratch/owengray/water_scf_test4//h2o.gridpts.18
  in: alloc fd         5864103894411  size in dbl              84211335
  out: alloc fd         5864103894411  size in dbl              84211335
  *** grid_quadv0: calc_type:                    2
  *** grid_quadv0: grid_written: T
  *** grid_quadv0: grad: F
  *** grid_quadv0: kske: F
  *** grid_quadv0: do_scf: F
  *** grid_quadv0: n_per_rec:                 3070
  grid_file: rewinding /scratch/owengray/water_scf_test4//h2o.gridpts.18
 4fd in         5864103894411
 grid_file: read    147 grid_pts in record     1 of      3.
  grid_file read: nqpts,nctr,n_in_rec,next_value                  146                    1                  147                    2
 gdenscf1                 -987

 global array: bgj_get_scf_dens:density[1:7,1:7],  handle: -987 

            1           2           3           4           5           6  
       ----------- ----------- ----------- ----------- ----------- -----------
   1       2.10598    -0.44789    -0.00000     0.00000    -0.11098    -0.02884
   2      -0.44789     2.00398     0.00000    -0.00000     0.61301    -0.05342
   3      -0.00000     0.00000     0.75141    -0.00000    -0.00000    -0.53875
   4       0.00000    -0.00000    -0.00000     2.00000     0.00000     0.00000
   5      -0.11098     0.61301    -0.00000     0.00000     1.22194    -0.48016
   6      -0.02884    -0.05342    -0.53875     0.00000    -0.48016     0.59609
   7      -0.02884    -0.05342     0.53875     0.00000    -0.48016    -0.17645

            7  
       -----------
   1      -0.02884
   2      -0.05342
   3       0.53875
   4       0.00000
   5      -0.48016
   6      -0.17645
   7       0.59609
 g_dens_xc1                 -989

 global array: gdens1[1:7,1:7],  handle: -989 

            1           2           3           4           5           6  
       ----------- ----------- ----------- ----------- ----------- -----------
   1       0.00000    -0.00000    -0.00000    -0.13290    -0.00000     0.00000
   2      -0.00000     0.00000     0.00000     0.87433     0.00000    -0.00000
   3      -0.00000     0.00000     0.00000     0.00000    -0.00000    -0.00000
   4      -0.13290     0.87433     0.00000     0.00000    -0.74847    -0.79560
   5      -0.00000     0.00000    -0.00000    -0.74847    -0.00000    -0.00000
   6       0.00000    -0.00000    -0.00000    -0.79560    -0.00000    -0.00000
   7       0.00000    -0.00000    -0.00000    -0.79560    -0.00000    -0.00000

            7  
       -----------
   1       0.00000
   2      -0.00000
   3      -0.00000
   4      -0.79560
   5      -0.00000
   6      -0.00000
   7      -0.00000

 global array: gdens+1[1:7,1:7],  handle: -988 

            1           2           3           4           5           6  
       ----------- ----------- ----------- ----------- ----------- -----------
   1       2.10598    -0.44789    -0.00000     0.00000    -0.11098    -0.02884
   2      -0.44789     2.00398     0.00000    -0.00000     0.61301    -0.05342
   3      -0.00000     0.00000     0.75141    -0.00000    -0.00000    -0.53875
   4       0.00000    -0.00000    -0.00000     2.00000     0.00000     0.00000
   5      -0.11098     0.61301    -0.00000     0.00000     1.22194    -0.48016
   6      -0.02884    -0.05342    -0.53875     0.00000    -0.48016     0.59609
   7      -0.02884    -0.05342     0.53875     0.00000    -0.48016    -0.17645

            7  
       -----------
   1      -0.02884
   2      -0.05342
   3       0.53875
   4       0.00000
   5      -0.48016
   6      -0.17645
   7       0.59609
  grid_file: opening /scratch/owengray/water_scf_test4//h2o.gridpts.00
  grid_file: grinfo opening /scratch/owengray/water_scf_test4//h2o.grinfo.00                                                                                                                                                                                                                
 1fdg in                    -1
1INFO read from /scratch/owengray/water_scf_test4//h2o.grinfo.00 enuc 0.91949809E+01
  grid_file: enucs    9.1949809302755270        9.1949809302755270     
  readin mxfilerec from /scratch/owengray/water_scf_test4//h2o.grinfo.00                                                                                                                                                                                                                
 2fdg in                    -1
 2INFO read from /scratch/owengray/water_scf_test4//h2o.grinfo.00  mxcrec                    3   nrecfil                    3   flopend  T
  grid_file: rewinding /scratch/owengray/water_scf_test4//h2o.gridpts.00
  in: alloc fd         5864103894411  size in dbl              84211335
  out: alloc fd         5864103894411  size in dbl              84211335
  *** grid_quadv0: ca  grid_file: opening /scratch/owengray/water_scf_test4//h2o.gridpts.19
  grid_file: grinfo opening /scratch/owengray/water_scf_test4//h2o.grinfo.19                                                                                                                                                                                                                
 1fdg in                    -1
1INFO read from /scratch/owengray/water_scf_test4//h2o.grinfo.19 enuc 0.91949809E+01
  grid_file: enucs    9.1949809302755270        9.1949809302755270     
  readin mxfilerec from /scratch/owengray/water_scf_test4//h2o.grinfo.19                                                                                                                                                                                                                
 2fdg in                    -1
 2INFO read from /scratch/owengray/water_scf_test4//h2o.grinfo.19  mxcrec                    3   nrecfil                    3   flopend  T
  grid_file: rewinding /scratch/owengray/water_scf_test4//h2o.gridpts.19
  in: alloc fd         5864103894411  size in dbl              84211335
  out: alloc fd         5864103894411  size in dbl              84211335
  *** grid_quadv0: calc_type:                    2
  *** grid_quadv0: grid_written: T
  *** grid_quadv0: grad: F
  *** grid_quadv0: kske: F
  *** grid_quadv0: do_scf: F
  *** grid_quadv0: n_per_rec:                 3070
  grid_file: rewinding /scratch/owengray/water_scf_test4//h2o.gridpts.19
 4fd in         5864103894411
 grid_file: read     96 grid_pts in record     1 of      3.
  grid_file read: nqpts,nctr,n_in_rec,next_value                   95                    1                   96                    2
  grid_file: opening /scratch/owengray/water_scf_test4//h2o.gridpts.01
  grid_file: grinfo opening /scratch/owengray/water_scf_test4//h2o.grinfo.01                                                                                                                                                                                                                
 1fdg in                    -1
1INFO read from /scratch/owengray/water_scf_test4//h2o.grinfo.01 enuc 0.91949809E+01
  grid_file: enucs    9.1949809302755270        9.1949809302755270     
  readin mxfilerec from /scratch/owengray/water_scf_test4//h2o.grinfo.01                                                                                                                                                                                                                
 2fdg in                    -1
 2INFO read from /scratch/owengray/water_scf_test4//h2o.grinfo.01  mxcrec                    3   nrecfil                    3   flopend  T
  grid_file: rewinding /scratch/owengray/water_scf_test4//h2o.gridpts.01
  in: alloc fd         5864103894411  size in dbl              84211335
  out: alloc fd         5864103894411  size in dbl              84211335
  *** grid_quadv0: calc_type:                    2
  *** grid_quadv0: grid_written: T
  *** grid_quadv0: grad: F
  *** grid_quadv0: kske: F
  *** grid_quadv0: do_scf: F
  *** grid_quadv0: n_per_rec:                 3070
  grid_file: rewinding /scratch/owengray/water_scf_test4//h2o.gridpts.01
 4fd in         5864103894411
 grid_file: read    112 grid_pts in record     1 of      3.
  grid_file read: nqpts,nctr,n_in_rec,next_value                  111                    1                  112                    2
lc_type:                    2
  *** grid_quadv0: grid_written: T
  *** grid_quadv0: grad: F
  *** grid_quadv0: kske: F
  *** grid_quadv0: do_scf: F
  *** grid_quadv0: n_per_rec:                 3070
  grid_file: rewinding /scratch/owengray/water_scf_test4//h2o.gridpts.00
 4fd in         5864103894411
 grid_file: read     96 grid_pts in record     1 of      3.
  grid_file read: nqpts,nctr,n_in_rec,next_value                   95                    1                   96                    2
 4fd in         5864103894411
 4fd in         5864103894411
 grid_file: read   1089 grid_pts in record     2 of      3.
  grid_file read: nqpts,nctr,n_in_rec,next_value                 1088                    2                 1089                    2
 4fd in         5864103894411
 grid_file: read   1451 grid_pts in record     2 of      3.
  grid_file read: nqpts,nctr,n_in_rec,next_value                 1450                    2                 1451                    2
 4fd in         5864103894411
 grid_file: read   1233 grid_pts in record     2 of      3.
  grid_file read: nqpts,nctr,n_in_rec,next_value                 1232                    2                 1233                    2
 4fd in         5864103894411
 grid_file: read    979 grid_pts in record     2 of      3.
  grid_file read: nqpts,nctr,n_in_rec,next_value                  978                    2                  979                    2
 grid_file: read   1259 grid_pts in record     2 of      3.
  grid_file read: nqpts,nctr,n_in_rec,next_value                 1258                    2                 1259                    2
 4fd in         5864103894411
 grid_file: read   1105 grid_pts in record     2 of      3.
  grid_file read: nqpts,nctr,n_in_rec,next_value                 1104                    2                 1105                    2
 4fd in         5864103894411
 grid_file: read   1259 grid_pts in record     2 of      3.
  grid_file read: nqpts,nctr,n_in_rec,next_value                 1258                    2                 1259                    2
 4fd in         5864103894411
 grid_file: read    888 grid_pts in record     2 of      3.
  grid_file read: nqpts,nctr,n_in_rec,next_value                  887                    2                  888                    2
 4fd in         5864103894411
 grid_file: read    382 grid_pts in record     2 of      3.
  grid_file read: nqpts,nctr,n_in_rec,next_value                  381                    2                  382                    2
 4fd in         5864103894411
 grid_file: read    375 grid_pts in record     2 of      3.
  grid_file read: nqpts,nctr,n_in_rec,next_value                  374                    2                  375                    2
 4fd in         5864103894411
 grid_file: read    354 grid_pts in record     2 of      3.
  grid_file read: nqpts,nctr,n_in_rec,next_value                  353                    2                  354                    2
 4fd in         5864103894411
 grid_file: read    385 grid_pts in record     2 of      3.
  grid_file read: nqpts,nctr,n_in_rec,next_value                  384                    2                  385                    2
 4fd in         5864103894411
 grid_file: read   1259 grid_pts in record     3 of      3.
  grid_file read: nqpts,nctr,n_in_rec,next_value                 1258                    3                 1259                    2
 4fd in         5864103894411
 grid_file: read   1243 grid_pts in record     3 of      3.
  grid_file read: nqpts,nctr,n_in_rec,next_value                 1242                    3                 1243                    2
 4fd in         5864103894411
 grid_file: read   1425 grid_pts in record     3 of      3.
  grid_file read: nqpts,nctr,n_in_rec,next_value                 1424                    3                 1425                    2
 4fd in         5864103894411
 grid_file: read   1105 grid_pts in record     3 of      3.
  grid_file read: nqpts,nctr,n_in_rec,next_value                 1104                    3                 1105                    2
 4fd in         5864103894411
 grid_file: read   1133 grid_pts in record     2 of      2.
  grid_file read: nqpts,nctr,n_in_rec,next_value                 1132                    3                 1133                    2
[...]
 4fd in         5864103894411
 grid_file: read     86 grid_pts in record     3 of      3.
  grid_file read: nqpts,nctr,n_in_rec,next_value                   85                    3                   86                    2
 4fd in         5864103894411
 grid_file: read    181 grid_pts in record     3 of      3.
  grid_file read: nqpts,nctr,n_in_rec,next_value                  180                    3                  181                    2
 4fd in         5864103894411
 grid_file: read   1105 grid_pts in record     2 of      2.
  grid_file read: nqpts,nctr,n_in_rec,next_value                 1104                    3                 1105                    2
 4fd in         5864103894411
 grid_file: read    136 grid_pts in record     2 of      2.
  grid_file read: nqpts,nctr,n_in_rec,next_value                  135                    3                  136                    2
 4fd in         5864103894411
 grid_file: read     66 grid_pts in record     3 of      3.
  grid_file read: nqpts,nctr,n_in_rec,next_value                   65                    3                   66                    2
 4fd in         5864103894411
 grid_file: read     50 grid_pts in record     3 of      3.
  grid_file read: nqpts,nctr,n_in_rec,next_value                   49                    3                   50                    2
 4fd in         5864103894411
 grid_file: read    181 grid_pts in record     3 of      3.
  grid_file read: nqpts,nctr,n_in_rec,next_value                  180                    3                  181                    2
 4fd in         5864103894411
 grid_file: read     50 grid_pts in record     3 of      3.
  grid_file read: nqpts,nctr,n_in_rec,next_value                   49                    3                   50                    2
 4fd in         5864103894411
 grid_file: read    989 grid_pts in record     2 of      2.
  grid_file read: nqpts,nctr,n_in_rec,next_value                  988                    3                  989                    2
 4fd in         5864103894411
 grid_file: read    137 grid_pts in record     2 of      2.
  grid_file read: nqpts,nctr,n_in_rec,next_value                  136                    3                  137                    2
 4fd in         5864103894411
 grid_file: read     50 grid_pts in record     3 of      3.
  grid_file read: nqpts,nctr,n_in_rec,next_value                   49                    3                   50                    2

     ------------------------------------------
      Total Density - Becke Population Analysis
     ------------------------------------------

    Atom         Charge   
 -----------   -------- 


 XC quadr. integrated density :       0.000000 npts:    30902 nctrs:        3

 XC matrix at end fock_xc:
 g_xc dotproduct   2.7301526932071917E-003
  matrix no.                     1   2.7301526932071917E-003
  ndim                     3  dims                     1                    7                    7
  alo                     1                    1                    1
  ahi                     1                    7                    7

 global array: nfockxc:3dxc[1:1,1:7,1:7],  handle: -990 
nfockxc:3dxc(1,1,1) = -0.000000
nfockxc:3dxc(1,2,1) = -0.000000
nfockxc:3dxc(1,3,1) = 0.000000
nfockxc:3dxc(1,4,1) = -0.004978
nfockxc:3dxc(1,5,1) = -0.000000
nfockxc:3dxc(1,6,1) = -0.000000
nfockxc:3dxc(1,7,1) = -0.000000
nfockxc:3dxc(1,1,2) = -0.000000
nfockxc:3dxc(1,2,2) = -0.000000
nfockxc:3dxc(1,3,2) = -0.000000
nfockxc:3dxc(1,4,2) = -0.026002
nfockxc:3dxc(1,5,2) = 0.000000
nfockxc:3dxc(1,6,2) = -0.000000
nfockxc:3dxc(1,7,2) = -0.000000
nfockxc:3dxc(1,1,3) = -0.000000
nfockxc:3dxc(1,2,3) = -0.000000
nfockxc:3dxc(1,3,3) = -0.000000
nfockxc:3dxc(1,4,3) = -0.000000
nfockxc:3dxc(1,5,3) = 0.000000
nfockxc:3dxc(1,6,3) = 0.000000
nfockxc:3dxc(1,7,3) = -0.000000
nfockxc:3dxc(1,1,4) = -0.004978
nfockxc:3dxc(1,2,4) = -0.026002
nfockxc:3dxc(1,3,4) = -0.000000
nfockxc:3dxc(1,4,4) = -0.000000
nfockxc:3dxc(1,5,4) = 0.023359
nfockxc:3dxc(1,6,4) = -0.007700
nfockxc:3dxc(1,7,4) = -0.007700
nfockxc:3dxc(1,1,5) = -0.000000
nfockxc:3dxc(1,2,5) = 0.000000
nfockxc:3dxc(1,3,5) = 0.000000
nfockxc:3dxc(1,4,5) = 0.023359
nfockxc:3dxc(1,5,5) = 0.000000
nfockxc:3dxc(1,6,5) = 0.000000
nfockxc:3dxc(1,7,5) = 0.000000
nfockxc:3dxc(1,1,6) = -0.000000
nfockxc:3dxc(1,2,6) = -0.000000
nfockxc:3dxc(1,3,6) = 0.000000
nfockxc:3dxc(1,4,6) = -0.007700
nfockxc:3dxc(1,5,6) = 0.000000
nfockxc:3dxc(1,6,6) = -0.000000
nfockxc:3dxc(1,7,6) = -0.000000
nfockxc:3dxc(1,1,7) = -0.000000
nfockxc:3dxc(1,2,7) = -0.000000
nfockxc:3dxc(1,3,7) = -0.000000
nfockxc:3dxc(1,4,7) = -0.007700
nfockxc:3dxc(1,5,7) = 0.000000
nfockxc:3dxc(1,6,7) = -0.000000
nfockxc:3dxc(1,7,7) = -0.000000
 *** xcnewfock: fock matrix after add

 global array: Work product[1:1,1:7,1:7],  handle: -993 
Work product(1,1,1) = 0.000000
Work product(1,2,1) = -0.000000
Work product(1,3,1) = 0.000000
Work product(1,4,1) = 0.050761
Work product(1,5,1) = -0.000000
Work product(1,6,1) = -0.000000
Work product(1,7,1) = -0.000000
Work product(1,1,2) = -0.000000
Work product(1,2,2) = 0.000000
Work product(1,3,2) = 0.000000
Work product(1,4,2) = 0.219706
Work product(1,5,2) = -0.000000
Work product(1,6,2) = -0.000000
Work product(1,7,2) = -0.000000
Work product(1,1,3) = -0.000000
Work product(1,2,3) = -0.000000
Work product(1,3,3) = 0.000000
Work product(1,4,3) = -0.000000
Work product(1,5,3) = 0.000000
Work product(1,6,3) = 0.000000
Work product(1,7,3) = -0.000000
Work product(1,1,4) = -0.004978
Work product(1,2,4) = -0.026002
Work product(1,3,4) = -0.000000
Work product(1,4,4) = 0.000000
Work product(1,5,4) = -0.026133
Work product(1,6,4) = -0.007700
Work product(1,7,4) = -0.007700
Work product(1,1,5) = -0.000000
Work product(1,2,5) = 0.000000
Work product(1,3,5) = 0.000000
Work product(1,4,5) = -0.026133
Work product(1,5,5) = 0.000000
Work product(1,6,5) = 0.000000
Work product(1,7,5) = 0.000000
Work product(1,1,6) = -0.000000
Work product(1,2,6) = 0.000000
Work product(1,3,6) = -0.000000
Work product(1,4,6) = 0.074377
Work product(1,5,6) = -0.000000
Work product(1,6,6) = 0.000000
Work product(1,7,6) = 0.000000
Work product(1,1,7) = -0.000000
Work product(1,2,7) = 0.000000
Work product(1,3,7) = 0.000000
Work product(1,4,7) = 0.074377
Work product(1,5,7) = -0.000000
Work product(1,6,7) = -0.000000
Work product(1,7,7) = 0.000000

 global array: Work product[1:1,1:7,1:7],  handle: -993 

 -- patch: Work product[1:1,1:7,1]

            1           2           3           4           5           6  
       ----------- ----------- ----------- ----------- ----------- -----------
   1       0.00000    -0.00000     0.00000     0.02289    -0.00000    -0.00000

            7  
       -----------
   1      -0.00000

 -- patch: Work product[1:1,1:7,2]

            1           2           3           4           5           6  
       ----------- ----------- ----------- ----------- ----------- -----------
   1      -0.00000     0.00000     0.00000     0.09685    -0.00000     0.00000

            7  
       -----------
   1       0.00000

 -- patch: Work product[1:1,1:7,3]

            1           2           3           4           5           6  
       ----------- ----------- ----------- ----------- ----------- -----------
   1       0.00000     0.00000     0.00000    -0.00000     0.00000    -0.00000

            7  
       -----------
   1       0.00000

 -- patch: Work product[1:1,1:7,4]

            1           2           3           4           5           6  
       ----------- ----------- ----------- ----------- ----------- -----------
   1       0.02289     0.09685    -0.00000     0.00000    -0.02613     0.03334

            7  
       -----------
   1       0.03334

 -- patch: Work product[1:1,1:7,5]

            1           2           3           4           5           6  
       ----------- ----------- ----------- ----------- ----------- -----------
   1      -0.00000    -0.00000     0.00000    -0.02613     0.00000    -0.00000

            7  
       -----------
   1      -0.00000

 -- patch: Work product[1:1,1:7,6]

            1           2           3           4           5           6  
       ----------- ----------- ----------- ----------- ----------- -----------
   1      -0.00000     0.00000    -0.00000     0.03334    -0.00000     0.00000

            7  
       -----------
   1       0.00000

 -- patch: Work product[1:1,1:7,7]

            1           2           3           4           5           6  
       ----------- ----------- ----------- ----------- ----------- -----------
   1      -0.00000     0.00000     0.00000     0.03334    -0.00000     0.00000

            7  
       -----------
   1       0.00000
              Contract       0.0 CPU seconds       0.0 Wall seconds
  Memleft= 421227156 doubles
 *** xcnewfock: fock matrix after add
 *** xcnewfock: fock matrix after add
 *** xcnewfock: fock matrix after add
 *** xcnewfock: fock matrix after add
 *** xcnewfock: fock matrix after add
 *** xcnewfock: fock matrix after add
 *** xcnewfock: fock matrix after add
 *** xcnewfock: fock matrix after add
 *** xcnewfock: fock matrix after add
 *** xcnewfock: fock matrix after add
 *** xcnewfock: fock matrix after add
 *** xcnewfock: fock matrix after add
 *** xcnewfock: fock matrix after add
 *** xcnewfock: fock matrix after add
 *** xcnewfock: fock matrix after add
 *** xcnewfock: fock matrix after add
 *** xcnewfock: fock matrix after add
 *** xcnewfock: fock matrix after add
 *** xcnewfock: fock matrix after add

 A+B
-------------------------

              1
    1   0.42256
-------------------------


 A+B
-------------------------

              1
    1   0.42256
-------------------------


 A+B
-------------------------

              1
    1   0.42256
-------------------------


 A+B
-------------------------

              1
    1   0.42256
-------------------------


 A+B
-------------------------

              1
    1   0.42256
-------------------------


 A+B
-------------------------

              1
    1   0.42256
-------------------------


 A+B
-------------------------

              1
    1   0.42256
-------------------------


 A+B
-------------------------

              1
    1   0.42256
-------------------------


 A+B
-------------------------

              1
    1   0.42256
-------------------------


 A+B
-------------------------

              1
    1   0.42256
-------------------------


 A+B
-------------------------

              1
    1   0.42256
-------------------------


 A+B
-------------------------

              1
    1   0.42256
-------------------------

             Transform       0.0 CPU seconds       0.0 Wall seconds
  Memleft= 421227156 doubles

Vector    1
 Spin  Occ  Vir     X+Y       A+B
    1    1    6   0.00000  -0.00000
    1    1    7   0.00000   0.00000
    1    2    6   0.00000  -0.00000
    1    2    7   0.00000   0.00000
    1    3    6   0.00000  -0.00000
    1    3    7   0.00000  -0.00000
    1    4    6   0.00000   0.00000
    1    4    7   0.00000   0.00000
    1    5    6   1.00000   0.42256
    1    5    7   0.00000  -0.00000
               Epsilon       0.0 CPU seconds       0.0 Wall seconds
  Memleft= 421227156 doubles

 A+B
-------------------------

              1
    1   0.42256
-------------------------

              Subspace       0.0 CPU seconds       0.0 Wall seconds
  Memleft= 421227164 doubles

 Eigenvalues
-------------------------

              1
    1   0.42256
-------------------------


 Eigenvectors
-------------------------

              1
    1   1.00000
-------------------------

                Diagon       0.0 CPU seconds       0.0 Wall seconds
  Memleft= 421227164 doubles
  Norm of residuals
    0.00000000

 global array: residual vectors 1[1:10,1:1],  handle: -995 

            1  
       -----------
   1      -0.00000
   2       0.00000
   3      -0.00000
   4       0.00000
   5      -0.00000
   6      -0.00000
   7       0.00000
   8       0.00000
   9       0.00000
  10      -0.00000
              Residual       0.0 CPU seconds       0.0 Wall seconds
  Memleft= 421227164 doubles
    1      1       1     0.19E-10   0.10+100        0.0
  ----  ------  ------  ---------  ---------  --------- 
  Convergence criterion met

 A+B
-------------------------

              1
    1   0.42256
-------------------------


 A+B
-------------------------

              1
    1   0.42256
-------------------------


 A+B
-------------------------

              1
    1   0.42256
-------------------------


 A+B
-------------------------

              1
    1   0.42256
-------------------------


 A+B
-------------------------

              1
    1   0.42256
-------------------------


 A+B
-------------------------

              1
    1   0.42256
-------------------------


 A+B
-------------------------

              1
    1   0.42256
-------------------------


  Ground state a1        -74.731861949106 a.u.

  ----------------------------------------------------------------------------
  Root   1 singlet b2             0.422555510 a.u.               11.4983 eV 

 global array: Transition density[1:7,1:7],  handle: -992 

            1           2           3           4           5           6  
       ----------- ----------- ----------- ----------- ----------- -----------
   1       0.00000    -0.00000    -0.00000    -0.13290    -0.00000    -0.00000
   2      -0.00000     0.00000     0.00000     0.87433     0.00000     0.00000
   3      -0.00000     0.00000     0.00000     0.00000     0.00000     0.00000
   4      -0.00000     0.00000     0.00000     0.00000     0.00000     0.00000
   5       0.00000    -0.00000    -0.00000    -0.74847    -0.00000    -0.00000
   6       0.00000    -0.00000    -0.00000    -0.79560    -0.00000    -0.00000
   7       0.00000    -0.00000    -0.00000    -0.79560    -0.00000    -0.00000

            7  
       -----------
   1      -0.00000
   2       0.00000
   3       0.00000
   4       0.00000
   5      -0.00000
   6      -0.00000
   7      -0.00000
  ----------------------------------------------------------------------------
     Transition Moments    X  0.00000   Y -0.09661   Z -0.00000
     Transition Moments   XX  0.00000  XY  0.00000  XZ -0.00000
     Transition Moments   YY -0.00000  YZ  0.04352  ZZ  0.00000
     Dipole Oscillator Strength                         0.00263

     Occ.    5  b2  ---  Virt.    6  a1     1.00000

              Target root =      1
          Target symmetry = none
      Ground state energy =    -74.731861949106
        Excitation energy =      0.422555510142
     Excited state energy =    -74.309306438964

 fn_civecs: ./h2o.civecs_singlet                                                                                                                                                                                                                                           

  CI vectors are stored in ./h2o.civecs_singlet            
              Analysis       0.0 CPU seconds       0.0 Wall seconds
  Memleft= 421227164 doubles

 Task  times  cpu:        0.1s     wall:        0.1s


                                NWChem Input Module
                                -------------------


  File vec is ./h2o.movecs                                                                    

  Limits (a.u.) specified for the density plot:
  ---------------------------------------------

        From        To      # of spacings
X    -3.77945     3.77945        50
Y    -3.77945     3.77945        50
Z    -3.77945     3.77945        50

  Total number of grid points =                132651

  1-st set of MOs      : ./h2o.movecs
  Output is written to : root1.cube
  Type of picture      : CHARGE DENSITY
  Format used          : Gaussian9x Cube
  Spin                 : TOTAL   
  The density is computed using all orbitals
  The density is computed on the specified grid
  max element    105.39497070096503     

  Sum of elements      =                     2903.50319
  Integration volume   =                        0.00346
  Integrated Charge    =                       10.03204

 Task  times  cpu:        0.1s     wall:        0.1s


                                NWChem Input Module
                                -------------------


 Summary of allocated global arrays
-----------------------------------
  No active global arrays



                         GA Statistics for process    0
                         ------------------------------

       create   destroy   get      put      acc     scatter   gather  read&inc
calls:  447      447     2203      642      642        3        0       80     
number of processes/call 1.34e+00 1.44e+00 1.71e+00 0.00e+00 0.00e+00
bytes total:             2.86e+05 1.18e+05 6.87e+04 3.20e+01 0.00e+00 6.40e+02
bytes remote:            2.87e+04 9.98e+03 2.12e+04 0.00e+00 0.00e+00 0.00e+00
Max memory consumed for GA by this process: 69720 bytes

MA_summarize_allocated_blocks: starting scan ...
heap block 'gridpts', handle 83, address 0x2aaaca7c3ae8:
	type of elements:		double precision
	number of elements:		84211335
	address of client space:	0x2aaaca7c3b40
	index for client space:		5864103894411
	total number of bytes:		673690776
MA_summarize_allocated_blocks: scan completed: 1 heap block, 0 stack blocks
MA usage statistics:

	allocation statistics:
					      heap	     stack
					      ----	     -----
	current number of blocks	         1	         0
	maximum number of blocks	        24	        49
	current total bytes		 673690776	         0
	maximum total bytes		 673992672	  22510184
	maximum total K-bytes		    673993	     22511
	maximum total M-bytes		       674	        23


                                     CITATION
                                     --------
                Please cite the following reference when publishing
                           results obtained with NWChem:

                 M. Valiev, E.J. Bylaska, N. Govind, K. Kowalski,
              T.P. Straatsma, H.J.J. van Dam, D. Wang, J. Nieplocha,
                        E. Apra, T.L. Windus, W.A. de Jong
                 "NWChem: a comprehensive and scalable open-source
                  solution for large scale molecular simulations"
                      Comput. Phys. Commun. 181, 1477 (2010)
                           doi:10.1016/j.cpc.2010.04.018

                                      AUTHORS
                                      -------
          E. Apra, E. J. Bylaska, W. A. de Jong, N. Govind, K. Kowalski,
       T. P. Straatsma, M. Valiev, H. J. J. van Dam, D. Wang, T. L. Windus,
        J. Hammond, J. Autschbach, K. Bhaskaran-Nair, J. Brabec, K. Lopata,
       S. A. Fischer, S. Krishnamoorthy, W. Ma, M. Klemm, O. Villa, Y. Chen,
    V. Anisimov, F. Aquino, S. Hirata, M. T. Hackler, T. Risthaus, M. Malagoli,
       A. Marenich, A. Otero-de-la-Roza, J. Mullin, P. Nichols, R. Peverati,
     J. Pittner, Y. Zhao, P.-D. Fan, A. Fonari, M. Williamson, R. J. Harrison,
       J. R. Rehr, M. Dupuis, D. Silverstein, D. M. A. Smith, J. Nieplocha,
        V. Tipparaju, M. Krishnan, B. E. Van Kuiken, A. Vazquez-Mayagoitia,
        L. Jensen, M. Swart, Q. Wu, T. Van Voorhis, A. A. Auer, M. Nooijen,
      L. D. Crosby, E. Brown, G. Cisneros, G. I. Fann, H. Fruchtl, J. Garza,
        K. Hirao, R. A. Kendall, J. A. Nichols, K. Tsemekhman, K. Wolinski,
     J. Anchell, D. E. Bernholdt, P. Borowski, T. Clark, D. Clerc, H. Dachsel,
   M. J. O. Deegan, K. Dyall, D. Elwood, E. Glendening, M. Gutowski, A. C. Hess,
         J. Jaffe, B. G. Johnson, J. Ju, R. Kobayashi, R. Kutteh, Z. Lin,
   R. Littlefield, X. Long, B. Meng, T. Nakajima, S. Niu, L. Pollack, M. Rosing,
   K. Glaesemann, G. Sandrone, M. Stave, H. Taylor, G. Thomas, J. H. van Lenthe,
                               A. T. Wong, Z. Zhang.

 Total times  cpu:        0.3s     wall:        0.5s
