 argument  1 = /scratch/owengray/water_TDC_1/water_TDC_1.nw



============================== echo of input deck ==============================
echo

start water_TDC_1
title "water TDC calculation number 1 in STO-3G basis set"
scratch_dir /scratch/owengray/water_TDC_1/
permanent_dir /scratch/owengray/water_TDC_1/
geometry units au noautoz nocenter
symmetry c1
	O	0.0	0.0	0.0
	H	0.758602	0.0	0.504284
	H	0.758602	0.0	-0.504284
end
basis
	H library STO-3G
	O library STO-3G
end
driver
	clear
	maxiter 1000
	xyz final
end
charge 0
dft
	xc b3lyp
	iterations 100
	print "final vectors analysis"
	vectors output water_TDC_1.movecs
end
task dft optimize
tddft
	nroots 10
	cis
	print debug
	notriplet
	civecs
end
task tddft energy
dplot
	vectors water_TDC_1.movecs
	civecs water_TDC_1.civecs_singlet
	root 1
	limitxyz
		-5.0	5.6	54
		-5.0	5.0	51
		-5.4	5.4	55
		gaussian
		output water_TDC_1_root1.cube
end
task dplot
dplot
	vectors water_TDC_1.movecs
	civecs water_TDC_1.civecs_singlet
	root 2
	limitxyz
		-5.0	5.6	54
		-5.0	5.0	51
		-5.4	5.4	55
		gaussian
		output water_TDC_1_root2.cube
end
task dplot
================================================================================


                                         
                                         


              Northwest Computational Chemistry Package (NWChem) 6.5
              ------------------------------------------------------


                    Environmental Molecular Sciences Laboratory
                       Pacific Northwest National Laboratory
                                Richland, WA 99352

                              Copyright (c) 1994-2014
                       Pacific Northwest National Laboratory
                            Battelle Memorial Institute

             NWChem is an open-source computational chemistry package
                        distributed under the terms of the
                      Educational Community License (ECL) 2.0
             A copy of the license is included with this distribution
                              in the LICENSE.TXT file

                                  ACKNOWLEDGMENT
                                  --------------

            This software and its documentation were developed at the
            EMSL at Pacific Northwest National Laboratory, a multiprogram
            national laboratory, operated for the U.S. Department of Energy
            by Battelle under Contract Number DE-AC05-76RL01830. Support
            for this work was provided by the Department of Energy Office
            of Biological and Environmental Research, Office of Basic
            Energy Sciences, and the Office of Advanced Scientific Computing.


           Job information
           ---------------

    hostname        = g24
    program         = /cm/shared/NWChem_old/bin/nwchem
    date            = Tue Aug  2 16:43:47 2016

    compiled        = Wed_Nov_26_17:04:32_2014
    source          = /cm/shared/Nwchem6.5-sourceb
    nwchem branch   = 6.5
    nwchem revision = 26243
    ga revision     = 10506
    input           = /scratch/owengray/water_TDC_1/water_TDC_1.nw
    prefix          = water_TDC_1.
    data base       = /scratch/owengray/water_TDC_1//water_TDC_1.db
    status          = startup
    nproc           =       20
    time left       =     -1s



           Memory information
           ------------------

    heap     =   13107196 doubles =    100.0 Mbytes
    stack    =   13107201 doubles =    100.0 Mbytes
    global   =   26214400 doubles =    200.0 Mbytes (distinct from heap & stack)
    total    =   52428797 doubles =    400.0 Mbytes
    verify   = yes
    hardfail = no 


           Directory information
           ---------------------

  0 permanent = /scratch/owengray/water_TDC_1/
  0 scratch   = /scratch/owengray/water_TDC_1/




                                NWChem Input Module
                                -------------------


                water TDC calculation number 1 in STO-3G basis set
                --------------------------------------------------
 Turning off AUTOSYM since
 SYMMETRY directive was detected!



                             Geometry "geometry" -> ""
                             -------------------------

 Output coordinates in a.u. (scale by  1.000000000 to convert to a.u.)

  No.       Tag          Charge          X              Y              Z
 ---- ---------------- ---------- -------------- -------------- --------------
    1 O                    8.0000     0.00000000     0.00000000     0.00000000
    2 H                    1.0000     0.75860200     0.00000000     0.50428400
    3 H                    1.0000     0.75860200     0.00000000    -0.50428400

      Atomic Mass 
      ----------- 

      O                 15.994910
      H                  1.007825


 Effective nuclear repulsion energy (a.u.)      18.5561212901

            Nuclear Dipole moment (a.u.) 
            ----------------------------
        X                 Y               Z
 ---------------- ---------------- ----------------
     1.5172040000     0.0000000000     0.0000000000


            XYZ format geometry
            -------------------
     3
 geometry
 O                     0.00000000     0.00000000     0.00000000
 H                     0.40143492     0.00000000     0.26685562
 H                     0.40143492     0.00000000    -0.26685562

 ==============================================================================
                                internuclear distances
 ------------------------------------------------------------------------------
       center one      |      center two      | atomic units |       a.u.
 ------------------------------------------------------------------------------
    2 H                |   1 O                |     0.91092  |     0.91092
    3 H                |   1 O                |     0.91092  |     0.91092
    3 H                |   2 H                |     1.00857  |     1.00857
 ------------------------------------------------------------------------------
                         number of included internuclear distances:          3
 ==============================================================================



 ==============================================================================
                                 internuclear angles
 ------------------------------------------------------------------------------
        center 1       |       center 2       |       center 3       |  degrees
 ------------------------------------------------------------------------------
    2 H                |   1 O                |   3 H                |    67.23
    2 H                |   1 O                |   3 H                |    67.23
    3 H                |   1 O                |   2 H                |    67.23
 ------------------------------------------------------------------------------
                            number of included internuclear angles:          3
 ==============================================================================



  library name resolved from: environment
  library file name is: </cm/shared/NWChem_old/data/libraries/>
  
                      Basis "ao basis" -> "" (cartesian)
                      -----
  H (Hydrogen)
  ------------
            Exponent  Coefficients 
       -------------- ---------------------------------------------------------
  1 S  3.42525091E+00  0.154329
  1 S  6.23913730E-01  0.535328
  1 S  1.68855400E-01  0.444635

  O (Oxygen)
  ----------
            Exponent  Coefficients 
       -------------- ---------------------------------------------------------
  1 S  1.30709320E+02  0.154329
  1 S  2.38088610E+01  0.535328
  1 S  6.44360830E+00  0.444635

  2 S  5.03315130E+00 -0.099967
  2 S  1.16959610E+00  0.399513
  2 S  3.80389000E-01  0.700115

  3 P  5.03315130E+00  0.155916
  3 P  1.16959610E+00  0.607684
  3 P  3.80389000E-01  0.391957



 Summary of "ao basis" -> "" (cartesian)
 ------------------------------------------------------------------------------
       Tag                 Description            Shells   Functions and Types
 ---------------- ------------------------------  ------  ---------------------
 H                           STO-3G                  1        1   1s
 O                           STO-3G                  3        5   2s1p



  Deleted DRIVER restart files 



                           NWChem Geometry Optimization
                           ----------------------------




                water TDC calculation number 1 in STO-3G basis set


 maximum gradient threshold         (gmax) =   0.000450
 rms gradient threshold             (grms) =   0.000300
 maximum cartesian step threshold   (xmax) =   0.001800
 rms cartesian step threshold       (xrms) =   0.001200
 fixed trust radius                (trust) =   0.300000
 maximum step size to saddle      (sadstp) =   0.100000
 energy precision                  (eprec) =   5.0D-06
 maximum number of steps          (nptopt) = 1000
 initial hessian option           (inhess) =    0
 line search option               (linopt) =    1
 hessian update option            (modupd) =    1
 saddle point option              (modsad) =    0
 initial eigen-mode to follow     (moddir) =    0
 initial variable to follow       (vardir) =    0
 follow first negative mode     (firstneg) =    T
 apply conjugacy                    (opcg) =    F
 source of zmatrix                         =           


          -------------------
          Energy Minimization
          -------------------


 Using diagonal initial Hessian 

          --------
          Step   0
          --------


                         Geometry "geometry" -> "geometry"
                         ---------------------------------

 Output coordinates in a.u. (scale by  1.000000000 to convert to a.u.)

  No.       Tag          Charge          X              Y              Z
 ---- ---------------- ---------- -------------- -------------- --------------
    1 O                    8.0000     0.00000000     0.00000000     0.00000000
    2 H                    1.0000     0.75860200     0.00000000     0.50428400
    3 H                    1.0000     0.75860200     0.00000000    -0.50428400

      Atomic Mass 
      ----------- 

      O                 15.994910
      H                  1.007825


 Effective nuclear repulsion energy (a.u.)      18.5561212901

            Nuclear Dipole moment (a.u.) 
            ----------------------------
        X                 Y               Z
 ---------------- ---------------- ----------------
     1.5172040000     0.0000000000     0.0000000000


                                 NWChem DFT Module
                                 -----------------


                water TDC calculation number 1 in STO-3G basis set




 Summary of "ao basis" -> "ao basis" (cartesian)
 ------------------------------------------------------------------------------
       Tag                 Description            Shells   Functions and Types
 ---------------- ------------------------------  ------  ---------------------
 H                           STO-3G                  1        1   1s
 O                           STO-3G                  3        5   2s1p


  Caching 1-el integrals 

            General Information
            -------------------
          SCF calculation type: DFT
          Wavefunction type:  closed shell.
          No. of atoms     :     3
          No. of electrons :    10
           Alpha electrons :     5
            Beta electrons :     5
          Charge           :     0
          Spin multiplicity:     1
          Use of symmetry is: off; symmetry adaption is: off
          Maximum number of iterations: 100
          AO basis - number of functions:     7
                     number of shells:     5
          Convergence on energy requested: 1.00D-06
          Convergence on density requested: 1.00D-05
          Convergence on gradient requested: 5.00D-04

              XC Information
              --------------
                         B3LYP Method XC Potential
                     Hartree-Fock (Exact) Exchange  0.200          
                        Slater Exchange Functional  0.800 local    
                    Becke 1988 Exchange Functional  0.720 non-local
              Lee-Yang-Parr Correlation Functional  0.810          
                  VWN I RPA Correlation Functional  0.190 local    

             Grid Information
             ----------------
          Grid used for XC integration:  medium    
          Radial quadrature: Mura-Knowles        
          Angular quadrature: Lebedev. 
          Tag              B.-S. Rad. Rad. Pts. Rad. Cut. Ang. Pts.
          ---              ---------- --------- --------- ---------
          O                   0.60       49           4.0       434
          H                   0.35       45           5.0       434
          Grid pruning is: on 
          Number of quadrature shells:   139
          Spatial weights used:  Erf1

          Convergence Information
          -----------------------
          Convergence aids based upon iterative change in 
          total energy or number of iterations. 
          Levelshifting, if invoked, occurs when the 
          HOMO/LUMO gap drops below (HL_TOL): 1.00D-02
          DIIS, if invoked, will attempt to extrapolate 
          using up to (NFOCK): 10 stored Fock matrices.

                    Damping( 0%)  Levelshifting(0.5)       DIIS
                  --------------- ------------------- ---------------
          dE  on:    start            ASAP                start   
          dE off:    2 iters        100 iters           100 iters 


      Screening Tolerance Information
      -------------------------------
          Density screening/tol_rho: 1.00D-10
          AO Gaussian exp screening on grid/accAOfunc:  14
          CD Gaussian exp screening on grid/accCDfunc:  20
          XC Gaussian exp screening on grid/accXCfunc:  20
          Schwarz screening/accCoul: 1.00D-08


      Superposition of Atomic Density Guess
      -------------------------------------

 Sum of atomic energies:         -74.71095592

      Non-variational initial energy
      ------------------------------

 Total energy =     -75.236609
 1-e energy   =    -134.155736
 2-e energy   =      40.363006
 HOMO         =      -0.531236
 LUMO         =       0.853280

   Time after variat. SCF:      0.7
   Time prior to 1st pass:      0.7

 Grid_pts file          = /scratch/owengray/water_TDC_1//water_TDC_1.gridpts.00
 Record size in doubles =  12289        No. of grid_pts per rec  =   3070
 Max. records in memory =      3        Max. recs in file   =  50662543

 Grid integrated density:      10.000048190477
 Requested integration accuracy:   0.10E-05

           Memory utilization after 1st SCF pass: 
           Heap Space remaining (MW):       13.07            13069492
          Stack Space remaining (MW):       13.11            13107012

   convergence    iter        energy       DeltaE   RMS-Dens  Diis-err    time
 ---------------- ----- ----------------- --------- --------- ---------  ------
 d= 0,ls=0.0,diis     1    -72.9419334359 -9.15D+01  1.18D-01  2.06D-01     0.9
 Grid integrated density:      10.000047562086
 Requested integration accuracy:   0.10E-05
 d= 0,ls=0.0,diis     2    -72.9622834174 -2.03D-02  1.80D-02  4.95D-03     0.9
 Grid integrated density:      10.000048178219
 Requested integration accuracy:   0.10E-05
 d= 0,ls=0.0,diis     3    -72.9627985551 -5.15D-04  1.34D-03  2.89D-05     1.0
 Grid integrated density:      10.000048150612
 Requested integration accuracy:   0.10E-05
 d= 0,ls=0.0,diis     4    -72.9628015991 -3.04D-06  4.64D-05  7.56D-09     1.0
 Grid integrated density:      10.000048151881
 Requested integration accuracy:   0.10E-05
 d= 0,ls=0.0,diis     5    -72.9628016010 -1.96D-09  1.09D-06  7.14D-12     1.1


         Total DFT energy =      -72.962801601028
      One electron energy =     -133.515884696293
           Coulomb energy =       51.975657647786
    Exchange-Corr. energy =       -9.978695842609
 Nuclear repulsion energy =       18.556121290089

 Numeric. integr. density =       10.000048151881

     Total iterative time =      0.4s



                       DFT Final Molecular Orbital Analysis
                       ------------------------------------

 Vector    1  Occ=2.000000D+00  E=-1.912275D+01
              MO Center=  8.1D-04,  5.4D-17, -3.4D-17, r^2= 1.5D-02
   Bfn.  Coefficient  Atom+Function         Bfn.  Coefficient  Atom+Function  
  ----- ------------  ---------------      ----- ------------  ---------------
     1      0.992554  1 O  s          

 Vector    2  Occ=2.000000D+00  E=-1.517674D+00
              MO Center=  3.2D-01, -1.0D-15,  2.2D-14, r^2= 3.3D-01
   Bfn.  Coefficient  Atom+Function         Bfn.  Coefficient  Atom+Function  
  ----- ------------  ---------------      ----- ------------  ---------------
     2      0.825683  1 O  s                  3      0.553400  1 O  px         
     1     -0.222441  1 O  s          

 Vector    3  Occ=2.000000D+00  E=-5.844077D-01
              MO Center=  1.2D-01,  4.3D-30, -2.6D-14, r^2= 5.1D-01
   Bfn.  Coefficient  Atom+Function         Bfn.  Coefficient  Atom+Function  
  ----- ------------  ---------------      ----- ------------  ---------------
     5      0.713025  1 O  pz                 6      0.536721  2 H  s          
     7     -0.536721  3 H  s          

 Vector    4  Occ=2.000000D+00  E=-3.436352D-01
              MO Center= -3.1D-01, -2.0D-14,  8.6D-15, r^2= 3.3D-01
   Bfn.  Coefficient  Atom+Function         Bfn.  Coefficient  Atom+Function  
  ----- ------------  ---------------      ----- ------------  ---------------
     3      0.789244  1 O  px                 2     -0.660182  1 O  s          
     1      0.150035  1 O  s          

 Vector    5  Occ=2.000000D+00  E=-3.139694D-01
              MO Center= -9.0D-28,  2.2D-14,  4.0D-30, r^2= 4.2D-01
   Bfn.  Coefficient  Atom+Function         Bfn.  Coefficient  Atom+Function  
  ----- ------------  ---------------      ----- ------------  ---------------
     4      1.000000  1 O  py         

 Vector    6  Occ=0.000000D+00  E= 6.431522D-01
              MO Center=  6.0D-01, -6.1D-18, -5.2D-15, r^2= 1.2D+00
   Bfn.  Coefficient  Atom+Function         Bfn.  Coefficient  Atom+Function  
  ----- ------------  ---------------      ----- ------------  ---------------
     2      2.426883  1 O  s                  6     -1.496045  2 H  s          
     7     -1.496045  3 H  s                  3      1.128444  1 O  px         

 Vector    7  Occ=0.000000D+00  E= 1.321672D+00
              MO Center=  3.2D-01,  2.5D-31,  2.9D-15, r^2= 7.0D-01
   Bfn.  Coefficient  Atom+Function         Bfn.  Coefficient  Atom+Function  
  ----- ------------  ---------------      ----- ------------  ---------------
     6      2.327129  2 H  s                  7     -2.327129  3 H  s          
     5     -1.358097  1 O  pz         


 center of mass
 --------------
 x =   0.08489887 y =   0.00000000 z =   0.00000000

 moments of inertia (a.u.)
 ------------------
           0.512584537131           0.000000000000           0.000000000000
           0.000000000000           1.542727912067           0.000000000000
           0.000000000000           0.000000000000           1.030143374936

     Multipole analysis of the density
     ---------------------------------

     L   x y z        total         alpha         beta         nuclear
     -   - - -        -----         -----         ----         -------
     0   0 0 0     -0.000000     -5.000000     -5.000000     10.000000

     1   1 0 0      1.021783     -0.247710     -0.247710      1.517204
     1   0 1 0     -0.000000     -0.000000     -0.000000      0.000000
     1   0 0 1     -0.000000     -0.000000     -0.000000      0.000000

     2   2 0 0     -3.264446     -2.207700     -2.207700      1.150954
     2   1 1 0     -0.000000     -0.000000     -0.000000      0.000000
     2   1 0 1     -0.000000     -0.000000     -0.000000      0.000000
     2   0 2 0     -4.134025     -2.067013     -2.067013      0.000000
     2   0 1 1     -0.000000     -0.000000     -0.000000      0.000000
     2   0 0 2     -3.901678     -2.205141     -2.205141      0.508605



                            NWChem DFT Gradient Module
                            --------------------------


                water TDC calculation number 1 in STO-3G basis set



  charge          =   0.00
  wavefunction    = closed shell



                         DFT ENERGY GRADIENTS

    atom               coordinates                        gradient
                 x          y          z           x          y          z
   1 O       0.000000   0.000000   0.000000    6.440839   0.000000  -0.000000
   2 H       0.758602   0.000000   0.504284   -3.220419  -0.000000  -3.047645
   3 H       0.758602   0.000000  -0.504284   -3.220419  -0.000000   3.047645

                 ----------------------------------------
                 |  Time  |  1-e(secs)   |  2-e(secs)   |
                 ----------------------------------------
                 |  CPU   |       0.05   |       0.00   |
                 ----------------------------------------
                 |  WALL  |       0.05   |       0.00   |
                 ----------------------------------------

@ Step       Energy      Delta E   Gmax     Grms     Xrms     Xmax   Walltime
@ ---- ---------------- -------- -------- -------- -------- -------- --------
@    0     -72.96280160  0.0D+00  6.44084  2.99635  0.00000  0.00000      1.7
                                                                    

 Restricting large step in mode    1 eval= 6.6D-01 step=-4.3D-01 new=-3.0D-01
 Restricting large step in mode    3 eval= 2.2D+00 step=-4.1D+00 new=-3.0D-01
 Restricting overall step due to large component. alpha=  0.89

                                 NWChem DFT Module
                                 -----------------


                water TDC calculation number 1 in STO-3G basis set




 Summary of "ao basis" -> "ao basis" (cartesian)
 ------------------------------------------------------------------------------
       Tag                 Description            Shells   Functions and Types
 ---------------- ------------------------------  ------  ---------------------
 H                           STO-3G                  1        1   1s
 O                           STO-3G                  3        5   2s1p


  Caching 1-el integrals 

            General Information
            -------------------
          SCF calculation type: DFT
          Wavefunction type:  closed shell.
          No. of atoms     :     3
          No. of electrons :    10
           Alpha electrons :     5
            Beta electrons :     5
          Charge           :     0
          Spin multiplicity:     1
          Use of symmetry is: off; symmetry adaption is: off
          Maximum number of iterations: 100
          AO basis - number of functions:     7
                     number of shells:     5
          Convergence on energy requested: 1.00D-06
          Convergence on density requested: 1.00D-05
          Convergence on gradient requested: 5.00D-04

              XC Information
              --------------
                         B3LYP Method XC Potential
                     Hartree-Fock (Exact) Exchange  0.200          
                        Slater Exchange Functional  0.800 local    
                    Becke 1988 Exchange Functional  0.720 non-local
              Lee-Yang-Parr Correlation Functional  0.810          
                  VWN I RPA Correlation Functional  0.190 local    

             Grid Information
             ----------------
          Grid used for XC integration:  medium    
          Radial quadrature: Mura-Knowles        
          Angular quadrature: Lebedev. 
          Tag              B.-S. Rad. Rad. Pts. Rad. Cut. Ang. Pts.
          ---              ---------- --------- --------- ---------
          O                   0.60       49           4.0       434
          H                   0.35       45           5.0       434
          Grid pruning is: on 
          Number of quadrature shells:   139
          Spatial weights used:  Erf1

          Convergence Information
          -----------------------
          Convergence aids based upon iterative change in 
          total energy or number of iterations. 
          Levelshifting, if invoked, occurs when the 
          HOMO/LUMO gap drops below (HL_TOL): 1.00D-02
          DIIS, if invoked, will attempt to extrapolate 
          using up to (NFOCK): 10 stored Fock matrices.

                    Damping( 0%)  Levelshifting(0.5)       DIIS
                  --------------- ------------------- ---------------
          dE  on:    start            ASAP                start   
          dE off:    2 iters        100 iters           100 iters 


      Screening Tolerance Information
      -------------------------------
          Density screening/tol_rho: 1.00D-10
          AO Gaussian exp screening on grid/accAOfunc:  14
          CD Gaussian exp screening on grid/accCDfunc:  20
          XC Gaussian exp screening on grid/accXCfunc:  20
          Schwarz screening/accCoul: 1.00D-08


 Loading old vectors from job with title :

water TDC calculation number 1 in STO-3G basis set

   Time after variat. SCF:      1.3
   Time prior to 1st pass:      1.3

 Grid_pts file          = /scratch/owengray/water_TDC_1//water_TDC_1.gridpts.00
 Record size in doubles =  12289        No. of grid_pts per rec  =   3070
 Max. records in memory =      3        Max. recs in file   =  50662543


           Memory utilization after 1st SCF pass: 
           Heap Space remaining (MW):       13.07            13069492
          Stack Space remaining (MW):       13.11            13107012

   convergence    iter        energy       DeltaE   RMS-Dens  Diis-err    time
 ---------------- ----- ----------------- --------- --------- ---------  ------
 d= 0,ls=0.0,diis     1    -74.1348636123 -8.77D+01  2.51D-01  1.72D+00     1.4
 d= 0,ls=0.0,diis     2    -74.3471720018 -2.12D-01  1.20D-01  1.99D-01     1.4
 d= 0,ls=0.0,diis     3    -74.3711497925 -2.40D-02  1.62D-02  4.94D-03     1.4
 d= 0,ls=0.0,diis     4    -74.3718590487 -7.09D-04  6.81D-04  4.50D-06     1.5
 d= 0,ls=0.0,diis     5    -74.3718597111 -6.62D-07  1.87D-06  1.32D-10     1.5


         Total DFT energy =      -74.371859711109
      One electron energy =     -128.065739097598
           Coulomb energy =       49.830488993028
    Exchange-Corr. energy =       -9.730653136143
 Nuclear repulsion energy =       13.594043529604

 Numeric. integr. density =       10.000000756597

     Total iterative time =      0.2s



                       DFT Final Molecular Orbital Analysis
                       ------------------------------------

 Vector    1  Occ=2.000000D+00  E=-1.887713D+01
              MO Center= -1.6D-01,  2.6D-17, -1.8D-07, r^2= 1.5D-02
   Bfn.  Coefficient  Atom+Function         Bfn.  Coefficient  Atom+Function  
  ----- ------------  ---------------      ----- ------------  ---------------
     1      0.992988  1 O  s          

 Vector    2  Occ=2.000000D+00  E=-1.337418D+00
              MO Center=  2.7D-01, -2.2D-15, -1.1D-07, r^2= 4.2D-01
   Bfn.  Coefficient  Atom+Function         Bfn.  Coefficient  Atom+Function  
  ----- ------------  ---------------      ----- ------------  ---------------
     2      0.559720  1 O  s                  3      0.383622  1 O  px         
     6      0.197170  2 H  s                  7      0.197170  3 H  s          
     1     -0.190672  1 O  s          

 Vector    3  Occ=2.000000D+00  E=-3.521254D-01
              MO Center= -3.5D-01,  4.8D-15, -2.0D-06, r^2= 4.7D-01
   Bfn.  Coefficient  Atom+Function         Bfn.  Coefficient  Atom+Function  
  ----- ------------  ---------------      ----- ------------  ---------------
     2      0.938615  1 O  s                  3     -0.555690  1 O  px         
     6     -0.241154  2 H  s                  7     -0.241147  3 H  s          
     1     -0.186782  1 O  s          

 Vector    4  Occ=2.000000D+00  E=-3.466277D-01
              MO Center= -1.7D-02,  1.9D-20,  1.8D-06, r^2= 5.3D-01
   Bfn.  Coefficient  Atom+Function         Bfn.  Coefficient  Atom+Function  
  ----- ------------  ---------------      ----- ------------  ---------------
     5      0.794028  1 O  pz                 6      0.547644  2 H  s          
     7     -0.547647  3 H  s          

 Vector    5  Occ=2.000000D+00  E=-2.089627D-01
              MO Center= -1.6D-01, -2.5D-15, -1.8D-07, r^2= 4.2D-01
   Bfn.  Coefficient  Atom+Function         Bfn.  Coefficient  Atom+Function  
  ----- ------------  ---------------      ----- ------------  ---------------
     4      1.000000  1 O  py         

 Vector    6  Occ=0.000000D+00  E= 4.701654D-01
              MO Center=  4.0D-01, -1.0D-16,  4.6D-07, r^2= 8.3D-01
   Bfn.  Coefficient  Atom+Function         Bfn.  Coefficient  Atom+Function  
  ----- ------------  ---------------      ----- ------------  ---------------
     2      1.235071  1 O  s                  3      1.100164  1 O  px         
     6     -0.890626  2 H  s                  7     -0.890624  3 H  s          

 Vector    7  Occ=0.000000D+00  E= 1.048804D+00
              MO Center=  3.6D-01, -9.5D-23, -5.5D-07, r^2= 6.7D-01
   Bfn.  Coefficient  Atom+Function         Bfn.  Coefficient  Atom+Function  
  ----- ------------  ---------------      ----- ------------  ---------------
     6      2.025215  2 H  s                  7     -2.025218  3 H  s          
     5     -0.894516  1 O  pz         


 center of mass
 --------------
 x =  -0.16473943 y =   0.00000000 z =  -0.00000028

 moments of inertia (a.u.)
 ------------------
           0.384848771176           0.000000000000          -0.000001325527
           0.000000000000           2.999635814503           0.000000000000
          -0.000001325527           0.000000000000           2.614787043326

     Multipole analysis of the density
     ---------------------------------

     L   x y z        total         alpha         beta         nuclear
     -   - - -        -----         -----         ----         -------
     0   0 0 0     -0.000000     -5.000000     -5.000000     10.000000

     1   1 0 0      1.011405      0.797101      0.797101     -0.582796
     1   0 1 0     -0.000000     -0.000000     -0.000000      0.000000
     1   0 0 1      0.000000      0.000001      0.000001     -0.000002

     2   2 0 0     -3.557069     -2.964092     -2.964092      2.371115
     2   1 1 0     -0.000000     -0.000000     -0.000000     -0.000000
     2   1 0 1      0.000000     -0.000001     -0.000001      0.000001
     2   0 2 0     -4.345650     -2.172825     -2.172825      0.000000
     2   0 1 1      0.000000      0.000000      0.000000     -0.000000
     2   0 0 2     -4.280059     -2.330960     -2.330960      0.381861

 Line search: 
     step= 0.89 grad=-2.8D+00 hess= 1.3D+00 energy=    -74.371860 mode=downhill
 new step= 1.03                   predicted energy=    -74.397112

          --------
          Step   1
          --------


                         Geometry "geometry" -> "geometry"
                         ---------------------------------

 Output coordinates in a.u. (scale by  1.000000000 to convert to a.u.)

  No.       Tag          Charge          X              Y              Z
 ---- ---------------- ---------- -------------- -------------- --------------
    1 O                    8.0000    -0.34589583     0.00000000    -0.00000039
    2 H                    1.0000     0.93155021    -0.00000000     0.42665570
    3 H                    1.0000     0.93154962    -0.00000000    -0.42665531

      Atomic Mass 
      ----------- 

      O                 15.994910
      H                  1.007825


 Effective nuclear repulsion energy (a.u.)      13.0518117792

            Nuclear Dipole moment (a.u.) 
            ----------------------------
        X                 Y               Z
 ---------------- ---------------- ----------------
    -0.9040667921     0.0000000000    -0.0000027377


                                 NWChem DFT Module
                                 -----------------


                water TDC calculation number 1 in STO-3G basis set




 Summary of "ao basis" -> "ao basis" (cartesian)
 ------------------------------------------------------------------------------
       Tag                 Description            Shells   Functions and Types
 ---------------- ------------------------------  ------  ---------------------
 H                           STO-3G                  1        1   1s
 O                           STO-3G                  3        5   2s1p


  Caching 1-el integrals 

            General Information
            -------------------
          SCF calculation type: DFT
          Wavefunction type:  closed shell.
          No. of atoms     :     3
          No. of electrons :    10
           Alpha electrons :     5
            Beta electrons :     5
          Charge           :     0
          Spin multiplicity:     1
          Use of symmetry is: off; symmetry adaption is: off
          Maximum number of iterations: 100
          AO basis - number of functions:     7
                     number of shells:     5
          Convergence on energy requested: 1.00D-06
          Convergence on density requested: 1.00D-05
          Convergence on gradient requested: 5.00D-04

              XC Information
              --------------
                         B3LYP Method XC Potential
                     Hartree-Fock (Exact) Exchange  0.200          
                        Slater Exchange Functional  0.800 local    
                    Becke 1988 Exchange Functional  0.720 non-local
              Lee-Yang-Parr Correlation Functional  0.810          
                  VWN I RPA Correlation Functional  0.190 local    

             Grid Information
             ----------------
          Grid used for XC integration:  medium    
          Radial quadrature: Mura-Knowles        
          Angular quadrature: Lebedev. 
          Tag              B.-S. Rad. Rad. Pts. Rad. Cut. Ang. Pts.
          ---              ---------- --------- --------- ---------
          O                   0.60       49           4.0       434
          H                   0.35       45           5.0       434
          Grid pruning is: on 
          Number of quadrature shells:   139
          Spatial weights used:  Erf1

          Convergence Information
          -----------------------
          Convergence aids based upon iterative change in 
          total energy or number of iterations. 
          Levelshifting, if invoked, occurs when the 
          HOMO/LUMO gap drops below (HL_TOL): 1.00D-02
          DIIS, if invoked, will attempt to extrapolate 
          using up to (NFOCK): 10 stored Fock matrices.

                    Damping( 0%)  Levelshifting(0.5)       DIIS
                  --------------- ------------------- ---------------
          dE  on:    start            ASAP                start   
          dE off:    2 iters        100 iters           100 iters 


      Screening Tolerance Information
      -------------------------------
          Density screening/tol_rho: 1.00D-10
          AO Gaussian exp screening on grid/accAOfunc:  14
          CD Gaussian exp screening on grid/accCDfunc:  20
          XC Gaussian exp screening on grid/accXCfunc:  20
          Schwarz screening/accCoul: 1.00D-08


 Loading old vectors from job with title :

water TDC calculation number 1 in STO-3G basis set

   Time after variat. SCF:      1.5
   Time prior to 1st pass:      1.5

 Grid_pts file          = /scratch/owengray/water_TDC_1//water_TDC_1.gridpts.00
 Record size in doubles =  12289        No. of grid_pts per rec  =   3070
 Max. records in memory =      3        Max. recs in file   =  50662543


           Memory utilization after 1st SCF pass: 
           Heap Space remaining (MW):       13.07            13069492
          Stack Space remaining (MW):       13.11            13107012

   convergence    iter        energy       DeltaE   RMS-Dens  Diis-err    time
 ---------------- ----- ----------------- --------- --------- ---------  ------
 d= 0,ls=0.0,diis     1    -74.4541665968 -8.75D+01  2.78D-02  2.07D-02     1.6
 d= 0,ls=0.0,diis     2    -74.4568507537 -2.68D-03  1.29D-02  2.19D-03     1.6
 d= 0,ls=0.0,diis     3    -74.4571199532 -2.69D-04  2.22D-03  9.49D-05     1.7
 d= 0,ls=0.0,diis     4    -74.4571339309 -1.40D-05  1.05D-04  1.20D-07     1.7
 d= 0,ls=0.0,diis     5    -74.4571339477 -1.69D-08  1.48D-06  3.24D-11     1.8


         Total DFT energy =      -74.457133947731
      One electron energy =     -127.325372099013
           Coulomb energy =       49.514008407911
    Exchange-Corr. energy =       -9.697582035829
 Nuclear repulsion energy =       13.051811779201

 Numeric. integr. density =        9.999999829675

     Total iterative time =      0.3s



                       DFT Final Molecular Orbital Analysis
                       ------------------------------------

 Vector    1  Occ=2.000000D+00  E=-1.886005D+01
              MO Center= -1.8D-01, -4.4D-17, -2.1D-07, r^2= 1.5D-02
   Bfn.  Coefficient  Atom+Function         Bfn.  Coefficient  Atom+Function  
  ----- ------------  ---------------      ----- ------------  ---------------
     1      0.993095  1 O  s          

 Vector    2  Occ=2.000000D+00  E=-1.303901D+00
              MO Center=  2.6D-01,  1.6D-17, -1.2D-07, r^2= 4.3D-01
   Bfn.  Coefficient  Atom+Function         Bfn.  Coefficient  Atom+Function  
  ----- ------------  ---------------      ----- ------------  ---------------
     2      0.545371  1 O  s                  3      0.360256  1 O  px         
     6      0.213307  2 H  s                  7      0.213307  3 H  s          
     1     -0.187052  1 O  s          

 Vector    3  Occ=2.000000D+00  E=-3.627763D-01
              MO Center= -3.5D-01,  5.3D-16, -4.9D-07, r^2= 5.0D-01
   Bfn.  Coefficient  Atom+Function         Bfn.  Coefficient  Atom+Function  
  ----- ------------  ---------------      ----- ------------  ---------------
     2      0.956824  1 O  s                  3     -0.522351  1 O  px         
     6     -0.261199  2 H  s                  7     -0.261198  3 H  s          
     1     -0.191230  1 O  s          

 Vector    4  Occ=2.000000D+00  E=-3.200060D-01
              MO Center= -4.5D-02,  1.9D-22,  2.3D-07, r^2= 5.3D-01
   Bfn.  Coefficient  Atom+Function         Bfn.  Coefficient  Atom+Function  
  ----- ------------  ---------------      ----- ------------  ---------------
     5      0.810674  1 O  pz                 6      0.538197  2 H  s          
     7     -0.538197  3 H  s          

 Vector    5  Occ=2.000000D+00  E=-1.976387D-01
              MO Center= -1.8D-01, -5.0D-16, -2.1D-07, r^2= 4.2D-01
   Bfn.  Coefficient  Atom+Function         Bfn.  Coefficient  Atom+Function  
  ----- ------------  ---------------      ----- ------------  ---------------
     4      1.000000  1 O  py         

 Vector    6  Occ=0.000000D+00  E= 4.298523D-01
              MO Center=  3.5D-01, -1.4D-17,  4.6D-07, r^2= 8.1D-01
   Bfn.  Coefficient  Atom+Function         Bfn.  Coefficient  Atom+Function  
  ----- ------------  ---------------      ----- ------------  ---------------
     2      1.109250  1 O  s                  3      1.092568  1 O  px         
     6     -0.825473  2 H  s                  7     -0.825470  3 H  s          

 Vector    7  Occ=0.000000D+00  E= 1.023615D+00
              MO Center=  3.8D-01, -5.9D-24, -5.7D-07, r^2= 6.8D-01
   Bfn.  Coefficient  Atom+Function         Bfn.  Coefficient  Atom+Function  
  ----- ------------  ---------------      ----- ------------  ---------------
     6      2.021878  2 H  s                  7     -2.021881  3 H  s          
     5     -0.842068  1 O  pz         


 center of mass
 --------------
 x =  -0.20293062 y =   0.00000000 z =  -0.00000033

 moments of inertia (a.u.)
 ------------------
           0.366918679952           0.000000000000          -0.000001594504
           0.000000000000           3.288073887793           0.000000000000
          -0.000001594504           0.000000000000           2.921155207841

     Multipole analysis of the density
     ---------------------------------

     L   x y z        total         alpha         beta         nuclear
     -   - - -        -----         -----         ----         -------
     0   0 0 0     -0.000000     -5.000000     -5.000000     10.000000

     1   1 0 0      0.983751      0.943909      0.943909     -0.904067
     1   0 1 0     -0.000000     -0.000000     -0.000000      0.000000
     1   0 0 1      0.000000      0.000002      0.000002     -0.000003

     2   2 0 0     -3.605883     -3.149303     -3.149303      2.692722
     2   1 1 0      0.000000      0.000000      0.000000     -0.000000
     2   1 0 1      0.000000     -0.000001     -0.000001      0.000002
     2   0 2 0     -4.379220     -2.189610     -2.189610      0.000000
     2   0 1 1      0.000000      0.000000      0.000000     -0.000000
     2   0 0 2     -4.325892     -2.344981     -2.344981      0.364070



                            NWChem DFT Gradient Module
                            --------------------------


                water TDC calculation number 1 in STO-3G basis set



  charge          =   0.00
  wavefunction    = closed shell



                         DFT ENERGY GRADIENTS

    atom               coordinates                        gradient
                 x          y          z           x          y          z
   1 O      -0.345896   0.000000  -0.000000    1.506932  -0.000000  -0.000001
   2 H       0.931550  -0.000000   0.426656   -0.753465   0.000000  -1.410649
   3 H       0.931550  -0.000000  -0.426655   -0.753467   0.000000   1.410650

                 ----------------------------------------
                 |  Time  |  1-e(secs)   |  2-e(secs)   |
                 ----------------------------------------
                 |  CPU   |       0.00   |       0.00   |
                 ----------------------------------------
                 |  WALL  |       0.00   |       0.00   |
                 ----------------------------------------

  Step       Energy      Delta E   Gmax     Grms     Xrms     Xmax   Walltime
  ---- ---------------- -------- -------- -------- -------- -------- --------
@    1     -74.45713395 -1.5D+00  1.50693  0.90591  0.14588  0.34590      2.7
                                                                    

 Restricting large step in mode    1 eval= 6.6D-01 step=-1.7D+00 new=-3.0D-01

                                 NWChem DFT Module
                                 -----------------


                water TDC calculation number 1 in STO-3G basis set




 Summary of "ao basis" -> "ao basis" (cartesian)
 ------------------------------------------------------------------------------
       Tag                 Description            Shells   Functions and Types
 ---------------- ------------------------------  ------  ---------------------
 H                           STO-3G                  1        1   1s
 O                           STO-3G                  3        5   2s1p


  Caching 1-el integrals 

            General Information
            -------------------
          SCF calculation type: DFT
          Wavefunction type:  closed shell.
          No. of atoms     :     3
          No. of electrons :    10
           Alpha electrons :     5
            Beta electrons :     5
          Charge           :     0
          Spin multiplicity:     1
          Use of symmetry is: off; symmetry adaption is: off
          Maximum number of iterations: 100
          AO basis - number of functions:     7
                     number of shells:     5
          Convergence on energy requested: 1.00D-06
          Convergence on density requested: 1.00D-05
          Convergence on gradient requested: 5.00D-04

              XC Information
              --------------
                         B3LYP Method XC Potential
                     Hartree-Fock (Exact) Exchange  0.200          
                        Slater Exchange Functional  0.800 local    
                    Becke 1988 Exchange Functional  0.720 non-local
              Lee-Yang-Parr Correlation Functional  0.810          
                  VWN I RPA Correlation Functional  0.190 local    

             Grid Information
             ----------------
          Grid used for XC integration:  medium    
          Radial quadrature: Mura-Knowles        
          Angular quadrature: Lebedev. 
          Tag              B.-S. Rad. Rad. Pts. Rad. Cut. Ang. Pts.
          ---              ---------- --------- --------- ---------
          O                   0.60       49           4.0       434
          H                   0.35       45           5.0       434
          Grid pruning is: on 
          Number of quadrature shells:   139
          Spatial weights used:  Erf1

          Convergence Information
          -----------------------
          Convergence aids based upon iterative change in 
          total energy or number of iterations. 
          Levelshifting, if invoked, occurs when the 
          HOMO/LUMO gap drops below (HL_TOL): 1.00D-02
          DIIS, if invoked, will attempt to extrapolate 
          using up to (NFOCK): 10 stored Fock matrices.

                    Damping( 0%)  Levelshifting(0.5)       DIIS
                  --------------- ------------------- ---------------
          dE  on:    start            ASAP                start   
          dE off:    2 iters        100 iters           100 iters 


      Screening Tolerance Information
      -------------------------------
          Density screening/tol_rho: 1.00D-10
          AO Gaussian exp screening on grid/accAOfunc:  14
          CD Gaussian exp screening on grid/accCDfunc:  20
          XC Gaussian exp screening on grid/accXCfunc:  20
          Schwarz screening/accCoul: 1.00D-08


 Loading old vectors from job with title :

water TDC calculation number 1 in STO-3G basis set

   Time after variat. SCF:      1.9
   Time prior to 1st pass:      1.9

 Grid_pts file          = /scratch/owengray/water_TDC_1//water_TDC_1.gridpts.00
 Record size in doubles =  12289        No. of grid_pts per rec  =   3070
 Max. records in memory =      3        Max. recs in file   =  50662543


           Memory utilization after 1st SCF pass: 
           Heap Space remaining (MW):       13.07            13069492
          Stack Space remaining (MW):       13.11            13107012

   convergence    iter        energy       DeltaE   RMS-Dens  Diis-err    time
 ---------------- ----- ----------------- --------- --------- ---------  ------
 d= 0,ls=0.0,diis     1    -74.9173827967 -8.67D+01  3.70D-02  1.26D-02     2.0
 d= 0,ls=0.0,diis     2    -74.9198533782 -2.47D-03  1.03D-02  2.61D-03     2.1
 d= 0,ls=0.0,diis     3    -74.9202166404 -3.63D-04  1.42D-03  5.64D-05     2.1
 d= 0,ls=0.0,diis     4    -74.9202256982 -9.06D-06  2.61D-05  7.71D-09     2.1
 d= 0,ls=0.0,diis     5    -74.9202256996 -1.44D-09  2.01D-07  4.03D-13     2.1


         Total DFT energy =      -74.920225699622
      One electron energy =     -126.087391766854
           Coulomb energy =       48.981429071527
    Exchange-Corr. energy =       -9.635326904781
 Nuclear repulsion energy =       11.821063900486

 Numeric. integr. density =        9.999999972189

     Total iterative time =      0.2s



                       DFT Final Molecular Orbital Analysis
                       ------------------------------------

 Vector    1  Occ=2.000000D+00  E=-1.885098D+01
              MO Center= -1.9D-01,  2.6D-17,  1.5D-07, r^2= 1.5D-02
   Bfn.  Coefficient  Atom+Function         Bfn.  Coefficient  Atom+Function  
  ----- ------------  ---------------      ----- ------------  ---------------
     1      0.993111  1 O  s          

 Vector    2  Occ=2.000000D+00  E=-1.173846D+00
              MO Center=  2.1D-01,  5.2D-17,  2.7D-07, r^2= 4.5D-01
   Bfn.  Coefficient  Atom+Function         Bfn.  Coefficient  Atom+Function  
  ----- ------------  ---------------      ----- ------------  ---------------
     2      0.636723  1 O  s                  3      0.333335  1 O  px         
     1     -0.200977  1 O  s                  6      0.189906  2 H  s          
     7      0.189905  3 H  s          

 Vector    3  Occ=2.000000D+00  E=-3.697411D-01
              MO Center=  1.2D-02, -2.6D-23,  2.6D-08, r^2= 5.9D-01
   Bfn.  Coefficient  Atom+Function         Bfn.  Coefficient  Atom+Function  
  ----- ------------  ---------------      ----- ------------  ---------------
     5      0.736685  1 O  pz                 6      0.500599  2 H  s          
     7     -0.500600  3 H  s          

 Vector    4  Occ=2.000000D+00  E=-3.355365D-01
              MO Center= -3.4D-01,  2.9D-17, -1.1D-07, r^2= 5.1D-01
   Bfn.  Coefficient  Atom+Function         Bfn.  Coefficient  Atom+Function  
  ----- ------------  ---------------      ----- ------------  ---------------
     2      0.856903  1 O  s                  3     -0.600326  1 O  px         
     6     -0.251838  2 H  s                  7     -0.251836  3 H  s          
     1     -0.173211  1 O  s          

 Vector    5  Occ=2.000000D+00  E=-1.825187D-01
              MO Center= -1.9D-01, -3.6D-17,  1.5D-07, r^2= 4.2D-01
   Bfn.  Coefficient  Atom+Function         Bfn.  Coefficient  Atom+Function  
  ----- ------------  ---------------      ----- ------------  ---------------
     4      1.000000  1 O  py         

 Vector    6  Occ=0.000000D+00  E= 4.564548D-01
              MO Center=  3.9D-01, -2.8D-17, -1.3D-06, r^2= 8.5D-01
   Bfn.  Coefficient  Atom+Function         Bfn.  Coefficient  Atom+Function  
  ----- ------------  ---------------      ----- ------------  ---------------
     2      1.076637  1 O  s                  3      1.018654  1 O  px         
     6     -0.837340  2 H  s                  7     -0.837345  3 H  s          

 Vector    7  Occ=0.000000D+00  E= 7.399690D-01
              MO Center=  3.2D-01,  4.8D-24,  1.5D-06, r^2= 7.6D-01
   Bfn.  Coefficient  Atom+Function         Bfn.  Coefficient  Atom+Function  
  ----- ------------  ---------------      ----- ------------  ---------------
     6      1.390838  2 H  s                  7     -1.390833  3 H  s          
     5     -0.906062  1 O  pz         


 center of mass
 --------------
 x =  -0.20861221 y =   0.00000000 z =   0.00000023

 moments of inertia (a.u.)
 ------------------
           0.874608538588           0.000000000000           0.000001700859
           0.000000000000           3.842791142718          -0.000000000000
           0.000001700859          -0.000000000000           2.968182604130

     Multipole analysis of the density
     ---------------------------------

     L   x y z        total         alpha         beta         nuclear
     -   - - -        -----         -----         ----         -------
     0   0 0 0     -0.000000     -5.000000     -5.000000     10.000000

     1   1 0 0      0.919621      0.935741      0.935741     -0.951861
     1   0 1 0     -0.000000     -0.000000     -0.000000      0.000000
     1   0 0 1      0.000000     -0.000001     -0.000001      0.000002

     2   2 0 0     -3.672623     -3.208125     -3.208125      2.743626
     2   1 1 0     -0.000000     -0.000000     -0.000000     -0.000000
     2   1 0 1     -0.000000      0.000001      0.000001     -0.000002
     2   0 2 0     -4.406564     -2.203282     -2.203282      0.000000
     2   0 1 1      0.000000      0.000000      0.000000      0.000000
     2   0 0 2     -4.169271     -2.518544     -2.518544      0.867818

 Line search: 
     step= 1.00 grad=-6.7D-01 hess= 2.1D-01 energy=    -74.920226 mode=downhill
 new step= 1.62                   predicted energy=    -74.999374

          --------
          Step   2
          --------


                         Geometry "geometry" -> "geometry"
                         ---------------------------------

 Output coordinates in a.u. (scale by  1.000000000 to convert to a.u.)

  No.       Tag          Charge          X              Y              Z
 ---- ---------------- ---------- -------------- -------------- --------------
    1 O                    8.0000    -0.35694499     0.00000000     0.00000069
    2 H                    1.0000     0.93707342    -0.00000000     0.80219281
    3 H                    1.0000     0.93707557    -0.00000000    -0.80219351

      Atomic Mass 
      ----------- 

      O                 15.994910
      H                  1.007825


 Effective nuclear repulsion energy (a.u.)      11.1323359959

            Nuclear Dipole moment (a.u.) 
            ----------------------------
        X                 Y               Z
 ---------------- ---------------- ----------------
    -0.9814109107     0.0000000000     0.0000048552


                                 NWChem DFT Module
                                 -----------------


                water TDC calculation number 1 in STO-3G basis set




 Summary of "ao basis" -> "ao basis" (cartesian)
 ------------------------------------------------------------------------------
       Tag                 Description            Shells   Functions and Types
 ---------------- ------------------------------  ------  ---------------------
 H                           STO-3G                  1        1   1s
 O                           STO-3G                  3        5   2s1p


  Caching 1-el integrals 

            General Information
            -------------------
          SCF calculation type: DFT
          Wavefunction type:  closed shell.
          No. of atoms     :     3
          No. of electrons :    10
           Alpha electrons :     5
            Beta electrons :     5
          Charge           :     0
          Spin multiplicity:     1
          Use of symmetry is: off; symmetry adaption is: off
          Maximum number of iterations: 100
          AO basis - number of functions:     7
                     number of shells:     5
          Convergence on energy requested: 1.00D-06
          Convergence on density requested: 1.00D-05
          Convergence on gradient requested: 5.00D-04

              XC Information
              --------------
                         B3LYP Method XC Potential
                     Hartree-Fock (Exact) Exchange  0.200          
                        Slater Exchange Functional  0.800 local    
                    Becke 1988 Exchange Functional  0.720 non-local
              Lee-Yang-Parr Correlation Functional  0.810          
                  VWN I RPA Correlation Functional  0.190 local    

             Grid Information
             ----------------
          Grid used for XC integration:  medium    
          Radial quadrature: Mura-Knowles        
          Angular quadrature: Lebedev. 
          Tag              B.-S. Rad. Rad. Pts. Rad. Cut. Ang. Pts.
          ---              ---------- --------- --------- ---------
          O                   0.60       49           4.0       434
          H                   0.35       45           5.0       434
          Grid pruning is: on 
          Number of quadrature shells:   139
          Spatial weights used:  Erf1

          Convergence Information
          -----------------------
          Convergence aids based upon iterative change in 
          total energy or number of iterations. 
          Levelshifting, if invoked, occurs when the 
          HOMO/LUMO gap drops below (HL_TOL): 1.00D-02
          DIIS, if invoked, will attempt to extrapolate 
          using up to (NFOCK): 10 stored Fock matrices.

                    Damping( 0%)  Levelshifting(0.5)       DIIS
                  --------------- ------------------- ---------------
          dE  on:    start            ASAP                start   
          dE off:    2 iters        100 iters           100 iters 


      Screening Tolerance Information
      -------------------------------
          Density screening/tol_rho: 1.00D-10
          AO Gaussian exp screening on grid/accAOfunc:  14
          CD Gaussian exp screening on grid/accCDfunc:  20
          XC Gaussian exp screening on grid/accXCfunc:  20
          Schwarz screening/accCoul: 1.00D-08


 Loading old vectors from job with title :

water TDC calculation number 1 in STO-3G basis set

   Time after variat. SCF:      2.2
   Time prior to 1st pass:      2.2

 Grid_pts file          = /scratch/owengray/water_TDC_1//water_TDC_1.gridpts.00
 Record size in doubles =  12289        No. of grid_pts per rec  =   3070
 Max. records in memory =      3        Max. recs in file   =  50662543


           Memory utilization after 1st SCF pass: 
           Heap Space remaining (MW):       13.07            13069492
          Stack Space remaining (MW):       13.11            13107012

   convergence    iter        energy       DeltaE   RMS-Dens  Diis-err    time
 ---------------- ----- ----------------- --------- --------- ---------  ------
 d= 0,ls=0.0,diis     1    -75.0839494847 -8.62D+01  1.17D-02  1.84D-03     2.2
 d= 0,ls=0.0,diis     2    -75.0842447632 -2.95D-04  9.45D-04  1.39D-05     2.3
 d= 0,ls=0.0,diis     3    -75.0842470779 -2.31D-06  2.96D-04  2.21D-06     2.3
 d= 0,ls=0.0,diis     4    -75.0842474002 -3.22D-07  5.57D-05  1.18D-07     2.3
 d= 0,ls=0.0,diis     5    -75.0842474176 -1.73D-08  1.54D-07  8.40D-13     2.4


         Total DFT energy =      -75.084247417561
      One electron energy =     -125.206783608639
           Coulomb energy =       48.581133901993
    Exchange-Corr. energy =       -9.590933706840
 Nuclear repulsion energy =       11.132335995923

 Numeric. integr. density =       10.000000137940

     Total iterative time =      0.1s



                       DFT Final Molecular Orbital Analysis
                       ------------------------------------

 Vector    1  Occ=2.000000D+00  E=-1.884871D+01
              MO Center= -1.9D-01,  3.4D-17,  3.7D-07, r^2= 1.5D-02
   Bfn.  Coefficient  Atom+Function         Bfn.  Coefficient  Atom+Function  
  ----- ------------  ---------------      ----- ------------  ---------------
     1      0.993156  1 O  s          

 Vector    2  Occ=2.000000D+00  E=-1.105826D+00
              MO Center=  1.8D-01,  9.9D-17,  7.3D-07, r^2= 4.7D-01
   Bfn.  Coefficient  Atom+Function         Bfn.  Coefficient  Atom+Function  
  ----- ------------  ---------------      ----- ------------  ---------------
     2      0.680700  1 O  s                  3      0.304679  1 O  px         
     1     -0.207925  1 O  s                  6      0.183401  2 H  s          
     7      0.183401  3 H  s          

 Vector    3  Occ=2.000000D+00  E=-3.913269D-01
              MO Center=  3.9D-02, -9.9D-24, -4.2D-07, r^2= 6.4D-01
   Bfn.  Coefficient  Atom+Function         Bfn.  Coefficient  Atom+Function  
  ----- ------------  ---------------      ----- ------------  ---------------
     5      0.702502  1 O  pz                 6      0.483626  2 H  s          
     7     -0.483627  3 H  s          

 Vector    4  Occ=2.000000D+00  E=-3.201929D-01
              MO Center= -3.3D-01, -1.3D-16,  1.6D-07, r^2= 5.3D-01
   Bfn.  Coefficient  Atom+Function         Bfn.  Coefficient  Atom+Function  
  ----- ------------  ---------------      ----- ------------  ---------------
     2      0.802414  1 O  s                  3     -0.635419  1 O  px         
     6     -0.255063  2 H  s                  7     -0.255062  3 H  s          
     1     -0.162700  1 O  s          

 Vector    5  Occ=2.000000D+00  E=-1.741852D-01
              MO Center= -1.9D-01, -1.2D-16,  3.7D-07, r^2= 4.2D-01
   Bfn.  Coefficient  Atom+Function         Bfn.  Coefficient  Atom+Function  
  ----- ------------  ---------------      ----- ------------  ---------------
     4      1.000000  1 O  py         

 Vector    6  Occ=0.000000D+00  E= 4.578322D-01
              MO Center=  3.9D-01, -5.9D-18, -4.3D-06, r^2= 8.8D-01
   Bfn.  Coefficient  Atom+Function         Bfn.  Coefficient  Atom+Function  
  ----- ------------  ---------------      ----- ------------  ---------------
     2      1.031706  1 O  s                  3      0.971132  1 O  px         
     6     -0.831071  2 H  s                  7     -0.831084  3 H  s          

 Vector    7  Occ=0.000000D+00  E= 6.368423D-01
              MO Center=  2.9D-01,  1.1D-23,  4.8D-06, r^2= 8.1D-01
   Bfn.  Coefficient  Atom+Function         Bfn.  Coefficient  Atom+Function  
  ----- ------------  ---------------      ----- ------------  ---------------
     6      1.188642  2 H  s                  7     -1.188630  3 H  s          
     5     -0.926829  1 O  pz         


 center of mass
 --------------
 x =  -0.21212493 y =   0.00000000 z =   0.00000058

 moments of inertia (a.u.)
 ------------------
           1.297098729418           0.000000000000           0.000004153635
           0.000000000000           4.294544510071          -0.000000000000
           0.000004153635          -0.000000000000           2.997445780653

     Multipole analysis of the density
     ---------------------------------

     L   x y z        total         alpha         beta         nuclear
     -   - - -        -----         -----         ----         -------
     0   0 0 0     -0.000000     -5.000000     -5.000000     10.000000

     1   1 0 0      0.865269      0.923340      0.923340     -0.981411
     1   0 1 0      0.000000      0.000000      0.000000      0.000000
     1   0 0 1      0.000000     -0.000002     -0.000002      0.000005

     2   2 0 0     -3.742148     -3.258822     -3.258822      2.775495
     2   1 1 0     -0.000000     -0.000000     -0.000000     -0.000000
     2   1 0 1     -0.000000      0.000002      0.000002     -0.000004
     2   0 2 0     -4.434990     -2.217495     -2.217495      0.000000
     2   0 1 1      0.000000      0.000000      0.000000      0.000000
     2   0 0 2     -4.051168     -2.669098     -2.669098      1.287028



                            NWChem DFT Gradient Module
                            --------------------------


                water TDC calculation number 1 in STO-3G basis set



  charge          =   0.00
  wavefunction    = closed shell



                         DFT ENERGY GRADIENTS

    atom               coordinates                        gradient
                 x          y          z           x          y          z
   1 O      -0.356945   0.000000   0.000001    0.573181   0.000000   0.000003
   2 H       0.937073  -0.000000   0.802193   -0.286593  -0.000000  -0.453791
   3 H       0.937076  -0.000000  -0.802194   -0.286589  -0.000000   0.453789

                 ----------------------------------------
                 |  Time  |  1-e(secs)   |  2-e(secs)   |
                 ----------------------------------------
                 |  CPU   |       0.00   |       0.02   |
                 ----------------------------------------
                 |  WALL  |       0.00   |       0.02   |
                 ----------------------------------------

  Step       Energy      Delta E   Gmax     Grms     Xrms     Xmax   Walltime
  ---- ---------------- -------- -------- -------- -------- -------- --------
@    2     -75.08424742 -6.3D-01  0.57318  0.31704  0.17709  0.37554      3.6
                                                                    


                                 NWChem DFT Module
                                 -----------------


                water TDC calculation number 1 in STO-3G basis set




 Summary of "ao basis" -> "ao basis" (cartesian)
 ------------------------------------------------------------------------------
       Tag                 Description            Shells   Functions and Types
 ---------------- ------------------------------  ------  ---------------------
 H                           STO-3G                  1        1   1s
 O                           STO-3G                  3        5   2s1p


  Caching 1-el integrals 

            General Information
            -------------------
          SCF calculation type: DFT
          Wavefunction type:  closed shell.
          No. of atoms     :     3
          No. of electrons :    10
           Alpha electrons :     5
            Beta electrons :     5
          Charge           :     0
          Spin multiplicity:     1
          Use of symmetry is: off; symmetry adaption is: off
          Maximum number of iterations: 100
          AO basis - number of functions:     7
                     number of shells:     5
          Convergence on energy requested: 1.00D-06
          Convergence on density requested: 1.00D-05
          Convergence on gradient requested: 5.00D-04

              XC Information
              --------------
                         B3LYP Method XC Potential
                     Hartree-Fock (Exact) Exchange  0.200          
                        Slater Exchange Functional  0.800 local    
                    Becke 1988 Exchange Functional  0.720 non-local
              Lee-Yang-Parr Correlation Functional  0.810          
                  VWN I RPA Correlation Functional  0.190 local    

             Grid Information
             ----------------
          Grid used for XC integration:  medium    
          Radial quadrature: Mura-Knowles        
          Angular quadrature: Lebedev. 
          Tag              B.-S. Rad. Rad. Pts. Rad. Cut. Ang. Pts.
          ---              ---------- --------- --------- ---------
          O                   0.60       49           5.0       434
          H                   0.35       45           5.0       434
          Grid pruning is: on 
          Number of quadrature shells:   139
          Spatial weights used:  Erf1

          Convergence Information
          -----------------------
          Convergence aids based upon iterative change in 
          total energy or number of iterations. 
          Levelshifting, if invoked, occurs when the 
          HOMO/LUMO gap drops below (HL_TOL): 1.00D-02
          DIIS, if invoked, will attempt to extrapolate 
          using up to (NFOCK): 10 stored Fock matrices.

                    Damping( 0%)  Levelshifting(0.5)       DIIS
                  --------------- ------------------- ---------------
          dE  on:    start            ASAP                start   
          dE off:    2 iters        100 iters           100 iters 


      Screening Tolerance Information
      -------------------------------
          Density screening/tol_rho: 1.00D-10
          AO Gaussian exp screening on grid/accAOfunc:  14
          CD Gaussian exp screening on grid/accCDfunc:  20
          XC Gaussian exp screening on grid/accXCfunc:  20
          Schwarz screening/accCoul: 1.00D-08


 Loading old vectors from job with title :

water TDC calculation number 1 in STO-3G basis set

   Time after variat. SCF:      2.5
   Time prior to 1st pass:      2.5

 Grid_pts file          = /scratch/owengray/water_TDC_1//water_TDC_1.gridpts.00
 Record size in doubles =  12289        No. of grid_pts per rec  =   3070
 Max. records in memory =      3        Max. recs in file   =  50662543


           Memory utilization after 1st SCF pass: 
           Heap Space remaining (MW):       13.07            13069492
          Stack Space remaining (MW):       13.11            13107012

   convergence    iter        energy       DeltaE   RMS-Dens  Diis-err    time
 ---------------- ----- ----------------- --------- --------- ---------  ------
 d= 0,ls=0.0,diis     1    -75.2153709631 -8.54D+01  1.31D-02  1.06D-02     2.5
 d= 0,ls=0.0,diis     2    -75.2160987198 -7.28D-04  7.35D-03  1.55D-03     2.6
 d= 0,ls=0.0,diis     3    -75.2163070684 -2.08D-04  1.94D-03  1.59D-04     2.7
 d= 0,ls=0.0,diis     4    -75.2163320009 -2.49D-05  4.81D-05  4.51D-08     2.7
 d= 0,ls=0.0,diis     5    -75.2163320107 -9.75D-09  1.44D-06  5.57D-11     2.8


         Total DFT energy =      -75.216332010678
      One electron energy =     -123.779111564143
           Coulomb energy =       47.915453590434
    Exchange-Corr. energy =       -9.519572574756
 Nuclear repulsion energy =       10.166898537788

 Numeric. integr. density =        9.999999959496

     Total iterative time =      0.3s



                       DFT Final Molecular Orbital Analysis
                       ------------------------------------

 Vector    1  Occ=2.000000D+00  E=-1.884829D+01
              MO Center= -2.1D-01, -4.4D-17, -9.4D-07, r^2= 1.5D-02
   Bfn.  Coefficient  Atom+Function         Bfn.  Coefficient  Atom+Function  
  ----- ------------  ---------------      ----- ------------  ---------------
     1      0.993309  1 O  s          

 Vector    2  Occ=2.000000D+00  E=-1.029059D+00
              MO Center=  1.3D-01,  2.1D-17, -1.3D-06, r^2= 5.0D-01
   Bfn.  Coefficient  Atom+Function         Bfn.  Coefficient  Atom+Function  
  ----- ------------  ---------------      ----- ------------  ---------------
     2      0.725299  1 O  s                  3      0.261066  1 O  px         
     1     -0.214224  1 O  s                  6      0.182280  2 H  s          
     7      0.182281  3 H  s          

 Vector    3  Occ=2.000000D+00  E=-3.874345D-01
              MO Center=  4.8D-02,  2.2D-23,  6.6D-07, r^2= 6.9D-01
   Bfn.  Coefficient  Atom+Function         Bfn.  Coefficient  Atom+Function  
  ----- ------------  ---------------      ----- ------------  ---------------
     5      0.682774  1 O  pz                 6      0.469478  2 H  s          
     7     -0.469477  3 H  s          

 Vector    4  Occ=2.000000D+00  E=-3.119281D-01
              MO Center= -3.0D-01,  2.8D-16, -7.5D-07, r^2= 5.9D-01
   Bfn.  Coefficient  Atom+Function         Bfn.  Coefficient  Atom+Function  
  ----- ------------  ---------------      ----- ------------  ---------------
     2      0.753129  1 O  s                  3     -0.646508  1 O  px         
     6     -0.278168  2 H  s                  7     -0.278168  3 H  s          
     1     -0.153388  1 O  s          

 Vector    5  Occ=2.000000D+00  E=-1.630677D-01
              MO Center= -2.1D-01,  2.4D-17, -9.4D-07, r^2= 4.2D-01
   Bfn.  Coefficient  Atom+Function         Bfn.  Coefficient  Atom+Function  
  ----- ------------  ---------------      ----- ------------  ---------------
     4      1.000000  1 O  py         

 Vector    6  Occ=0.000000D+00  E= 4.137445D-01
              MO Center=  3.6D-01, -9.1D-17,  9.2D-06, r^2= 9.0D-01
   Bfn.  Coefficient  Atom+Function         Bfn.  Coefficient  Atom+Function  
  ----- ------------  ---------------      ----- ------------  ---------------
     3      0.924606  1 O  px                 2      0.905684  1 O  s          
     6     -0.783649  2 H  s                  7     -0.783627  3 H  s          

 Vector    7  Occ=0.000000D+00  E= 5.290594D-01
              MO Center=  2.7D-01,  1.7D-23, -9.8D-06, r^2= 8.7D-01
   Bfn.  Coefficient  Atom+Function         Bfn.  Coefficient  Atom+Function  
  ----- ------------  ---------------      ----- ------------  ---------------
     6      1.025442  2 H  s                  7     -1.025463  3 H  s          
     5     -0.910929  1 O  pz         


 center of mass
 --------------
 x =  -0.24721537 y =   0.00000000 z =  -0.00000148

 moments of inertia (a.u.)
 ------------------
           1.835984470172           0.000000000000          -0.000007884035
           0.000000000000           5.133635055762          -0.000000000000
          -0.000007884035          -0.000000000000           3.297650585590

     Multipole analysis of the density
     ---------------------------------

     L   x y z        total         alpha         beta         nuclear
     -   - - -        -----         -----         ----         -------
     0   0 0 0     -0.000000     -5.000000     -5.000000     10.000000

     1   1 0 0      0.790629      1.033613      1.033613     -1.276598
     1   0 1 0     -0.000000     -0.000000     -0.000000      0.000000
     1   0 0 1      0.000000      0.000006      0.000006     -0.000012

     2   2 0 0     -3.836947     -3.473712     -3.473712      3.110478
     2   1 1 0      0.000000      0.000000      0.000000     -0.000000
     2   1 0 1     -0.000000     -0.000004     -0.000004      0.000009
     2   0 2 0     -4.489540     -2.244770     -2.244770      0.000000
     2   0 1 1     -0.000000     -0.000000     -0.000000      0.000000
     2   0 0 2     -3.956246     -2.888988     -2.888988      1.821729

 Line search: 
     step= 1.00 grad=-1.7D-01 hess= 4.2D-02 energy=    -75.216332 mode=downhill
 new step= 2.06                   predicted energy=    -75.263966

          --------
          Step   3
          --------


                         Geometry "geometry" -> "geometry"
                         ---------------------------------

 Output coordinates in a.u. (scale by  1.000000000 to convert to a.u.)

  No.       Tag          Charge          X              Y              Z
 ---- ---------------- ---------- -------------- -------------- --------------
    1 O                    8.0000    -0.44386136     0.00000000    -0.00000439
    2 H                    1.0000     0.98053534    -0.00000000     1.11589568
    3 H                    1.0000     0.98053002    -0.00000000    -1.11589128

      Atomic Mass 
      ----------- 

      O                 15.994910
      H                  1.007825


 Effective nuclear repulsion energy (a.u.)       9.2905274766

            Nuclear Dipole moment (a.u.) 
            ----------------------------
        X                 Y               Z
 ---------------- ---------------- ----------------
    -1.5898255102     0.0000000000    -0.0000307625


                                 NWChem DFT Module
                                 -----------------


                water TDC calculation number 1 in STO-3G basis set




 Summary of "ao basis" -> "ao basis" (cartesian)
 ------------------------------------------------------------------------------
       Tag                 Description            Shells   Functions and Types
 ---------------- ------------------------------  ------  ---------------------
 H                           STO-3G                  1        1   1s
 O                           STO-3G                  3        5   2s1p


  Caching 1-el integrals 

            General Information
            -------------------
          SCF calculation type: DFT
          Wavefunction type:  closed shell.
          No. of atoms     :     3
          No. of electrons :    10
           Alpha electrons :     5
            Beta electrons :     5
          Charge           :     0
          Spin multiplicity:     1
          Use of symmetry is: off; symmetry adaption is: off
          Maximum number of iterations: 100
          AO basis - number of functions:     7
                     number of shells:     5
          Convergence on energy requested: 1.00D-06
          Convergence on density requested: 1.00D-05
          Convergence on gradient requested: 5.00D-04

              XC Information
              --------------
                         B3LYP Method XC Potential
                     Hartree-Fock (Exact) Exchange  0.200          
                        Slater Exchange Functional  0.800 local    
                    Becke 1988 Exchange Functional  0.720 non-local
              Lee-Yang-Parr Correlation Functional  0.810          
                  VWN I RPA Correlation Functional  0.190 local    

             Grid Information
             ----------------
          Grid used for XC integration:  medium    
          Radial quadrature: Mura-Knowles        
          Angular quadrature: Lebedev. 
          Tag              B.-S. Rad. Rad. Pts. Rad. Cut. Ang. Pts.
          ---              ---------- --------- --------- ---------
          O                   0.60       49           5.0       434
          H                   0.35       45           6.0       434
          Grid pruning is: on 
          Number of quadrature shells:   139
          Spatial weights used:  Erf1

          Convergence Information
          -----------------------
          Convergence aids based upon iterative change in 
          total energy or number of iterations. 
          Levelshifting, if invoked, occurs when the 
          HOMO/LUMO gap drops below (HL_TOL): 1.00D-02
          DIIS, if invoked, will attempt to extrapolate 
          using up to (NFOCK): 10 stored Fock matrices.

                    Damping( 0%)  Levelshifting(0.5)       DIIS
                  --------------- ------------------- ---------------
          dE  on:    start            ASAP                start   
          dE off:    2 iters        100 iters           100 iters 


      Screening Tolerance Information
      -------------------------------
          Density screening/tol_rho: 1.00D-10
          AO Gaussian exp screening on grid/accAOfunc:  14
          CD Gaussian exp screening on grid/accCDfunc:  20
          XC Gaussian exp screening on grid/accXCfunc:  20
          Schwarz screening/accCoul: 1.00D-08


 Loading old vectors from job with title :

water TDC calculation number 1 in STO-3G basis set

   Time after variat. SCF:      2.8
   Time prior to 1st pass:      2.8

 Grid_pts file          = /scratch/owengray/water_TDC_1//water_TDC_1.gridpts.00
 Record size in doubles =  12289        No. of grid_pts per rec  =   3070
 Max. records in memory =      3        Max. recs in file   =  50662543


           Memory utilization after 1st SCF pass: 
           Heap Space remaining (MW):       13.07            13069492
          Stack Space remaining (MW):       13.11            13107012

   convergence    iter        energy       DeltaE   RMS-Dens  Diis-err    time
 ---------------- ----- ----------------- --------- --------- ---------  ------
 d= 0,ls=0.0,diis     1    -75.2861256424 -8.46D+01  1.43D-02  9.33D-03     2.9
 d= 0,ls=0.0,diis     2    -75.2865972197 -4.72D-04  8.44D-03  2.23D-03     2.9
 d= 0,ls=0.0,diis     3    -75.2869169616 -3.20D-04  2.19D-03  2.26D-04     2.9
 d= 0,ls=0.0,diis     4    -75.2869541960 -3.72D-05  4.94D-05  4.98D-08     2.9
 d= 0,ls=0.0,diis     5    -75.2869542078 -1.18D-08  2.15D-06  1.20D-10     3.0


         Total DFT energy =      -75.286954207808
      One electron energy =     -122.369234318361
           Coulomb energy =       47.241358167566
    Exchange-Corr. energy =       -9.449605533622
 Nuclear repulsion energy =        9.290527476608

 Numeric. integr. density =        9.999999075685

     Total iterative time =      0.2s



                       DFT Final Molecular Orbital Analysis
                       ------------------------------------

 Vector    1  Occ=2.000000D+00  E=-1.885370D+01
              MO Center= -2.3D-01, -4.2D-17, -2.3D-06, r^2= 1.5D-02
   Bfn.  Coefficient  Atom+Function         Bfn.  Coefficient  Atom+Function  
  ----- ------------  ---------------      ----- ------------  ---------------
     1      0.993475  1 O  s          

 Vector    2  Occ=2.000000D+00  E=-9.665442D-01
              MO Center=  6.8D-02,  1.0D-16, -4.1D-06, r^2= 5.2D-01
   Bfn.  Coefficient  Atom+Function         Bfn.  Coefficient  Atom+Function  
  ----- ------------  ---------------      ----- ------------  ---------------
     2      0.772914  1 O  s                  1     -0.221194  1 O  s          
     3      0.219350  1 O  px                 6      0.176863  2 H  s          
     7      0.176866  3 H  s          

 Vector    3  Occ=2.000000D+00  E=-3.779961D-01
              MO Center=  5.7D-02, -2.4D-23,  2.1D-06, r^2= 7.5D-01
   Bfn.  Coefficient  Atom+Function         Bfn.  Coefficient  Atom+Function  
[...]
       ----------- ----------- ----------- ----------- ----------- -----------
   1       0.00000    -0.00000     0.00000     0.00000     0.00000     0.00000
   2      -0.00000     0.00000    -0.00000    -0.00000    -0.00000    -0.00000
   3      -0.00000     0.00000    -0.00000    -0.00000    -0.00000    -0.00000
   4       0.00000    -0.00000     0.00000     0.00000     0.00000     0.00000
   5       0.00000    -0.00000     0.00000     0.93160     0.00000     0.00000
   6      -0.00000     0.00000    -0.00000    -0.78939    -0.00000    -0.00000
   7       0.00000    -0.00000     0.00000     0.78939     0.00000     0.00000

            7  
       -----------
   1       0.00000
   2      -0.00000
   3      -0.00000
   4       0.00000
   5      -0.00000
   6       0.00000
   7      -0.00000
  ----------------------------------------------------------------------------
     Transition Moments    X  0.00000   Y  0.00000   Z  0.00000
     Transition Moments   XX  0.00000  XY  0.00000  XZ -0.00000
     Transition Moments   YY -0.00000  YZ -0.09905  ZZ  0.00000
     Dipole Oscillator Strength                         0.00000

     Occ.    5  a   ---  Virt.    7  a      1.00000
  ----------------------------------------------------------------------------
  Root   3 singlet a              0.521135371 a.u.               14.1808 eV 

 global array: Transition density[1:7,1:7],  handle: -992 

            1           2           3           4           5           6  
       ----------- ----------- ----------- ----------- ----------- -----------
   1      -0.01489     0.07088    -0.07730     0.00000     0.00000    -0.03315
   2       0.09445    -0.44965     0.49037    -0.00000    -0.00000     0.21031
   3       0.10061    -0.47895     0.52232    -0.00000    -0.00000     0.22401
   4      -0.00000     0.00000    -0.00000     0.00000    -0.00000    -0.00000
   5       0.00000    -0.00000     0.00000     0.00000    -0.19127    -0.13900
   6      -0.09463     0.45048    -0.49127     0.00000     0.16207    -0.09291
   7      -0.09463     0.45048    -0.49127     0.00000    -0.16207    -0.32848

            7  
       -----------
   1      -0.03315
   2       0.21031
   3       0.22401
   4      -0.00000
   5       0.13900
   6      -0.32848
   7      -0.09291
  ----------------------------------------------------------------------------
     Transition Moments    X  0.48193   Y -0.00000   Z  0.00000
     Transition Moments   XX  0.11025  XY  0.00000  XZ -0.00000
     Transition Moments   YY  0.12771  YZ -0.00000  ZZ  0.63685
     Dipole Oscillator Strength                         0.08069

     Occ.    2  a   ---  Virt.    6  a     -0.05086
     Occ.    3  a   ---  Virt.    7  a     -0.33127
     Occ.    4  a   ---  Virt.    6  a      0.94216
  ----------------------------------------------------------------------------
  Root   4 singlet a              0.597098416 a.u.               16.2479 eV 

 global array: Transition density[1:7,1:7],  handle: -992 

            1           2           3           4           5           6  
       ----------- ----------- ----------- ----------- ----------- -----------
   1       0.00000    -0.00000     0.00000    -0.00000     0.03973     0.02887
   2      -0.00000     0.00000    -0.00000     0.00000    -0.25202    -0.18315
   3      -0.00000     0.00000    -0.00000     0.00000    -0.26844    -0.19509
   4       0.00000    -0.00000     0.00000    -0.00000     0.00000     0.00000
   5       0.08481    -0.42557     0.56402    -0.00000     0.00000     0.25039
   6      -0.07186     0.36061    -0.47793     0.00000     0.25248    -0.02868
   7       0.07186    -0.36061     0.47793    -0.00000     0.25248     0.39566

            7  
       -----------
   1      -0.02887
   2       0.18315
   3       0.19509
   4      -0.00000
   5       0.25039
   6      -0.39566
   7       0.02868
  ----------------------------------------------------------------------------
     Transition Moments    X -0.00000   Y  0.00000   Z  0.24259
     Transition Moments   XX -0.00000  XY -0.00000  XZ -0.02807
     Transition Moments   YY -0.00000  YZ -0.00000  ZZ -0.00000
     Dipole Oscillator Strength                         0.02343

     Occ.    2  a   ---  Virt.    7  a      0.05490
     Occ.    3  a   ---  Virt.    6  a     -0.55220
     Occ.    4  a   ---  Virt.    7  a      0.83190
  ----------------------------------------------------------------------------
  Root   5 singlet a              0.721932455 a.u.               19.6448 eV 

 global array: Transition density[1:7,1:7],  handle: -992 

            1           2           3           4           5           6  
       ----------- ----------- ----------- ----------- ----------- -----------
   1       0.00000    -0.00000     0.00000     0.00000    -0.05992    -0.04355
   2      -0.00000     0.00000    -0.00000    -0.00000     0.38014     0.27626
   3      -0.00000     0.00000    -0.00000    -0.00000     0.40490     0.29426
   4       0.00000    -0.00000     0.00000    -0.00000    -0.00000    -0.00000
   5       0.06578    -0.31699     0.36799    -0.00000     0.00000     0.15971
   6      -0.05574     0.26861    -0.31181     0.00000    -0.38083    -0.41210
   7       0.05574    -0.26861     0.31181    -0.00000    -0.38083    -0.14143

            7  
       -----------
   1       0.04355
   2      -0.27626
   3      -0.29426
   4       0.00000
   5       0.15971
   6       0.14143
   7       0.41210
  ----------------------------------------------------------------------------
     Transition Moments    X  0.00000   Y  0.00000   Z  1.52322
     Transition Moments   XX  0.00000  XY -0.00000  XZ  1.21449
     Transition Moments   YY  0.00000  YZ  0.00000  ZZ  0.00000
     Dipole Oscillator Strength                         1.11669

     Occ.    3  a   ---  Virt.    6  a      0.83290
     Occ.    4  a   ---  Virt.    7  a      0.55336
  ----------------------------------------------------------------------------
  Root   6 singlet a              0.925774548 a.u.               25.1916 eV 

 global array: Transition density[1:7,1:7],  handle: -992 

            1           2           3           4           5           6  
       ----------- ----------- ----------- ----------- ----------- -----------
   1       0.01379    -0.05435     0.01722    -0.00000    -0.00000     0.00380
   2      -0.08748     0.34479    -0.10923     0.00000     0.00000    -0.02414
   3      -0.09318     0.36726    -0.11635     0.00000     0.00000    -0.02571
   4       0.00000    -0.00000     0.00000    -0.00000    -0.00000    -0.00000
   5       0.00000    -0.00000     0.00000     0.00000    -0.51295    -0.37278
   6       0.08764    -0.34542     0.10943    -0.00000     0.43465     0.34006
   7       0.08764    -0.34542     0.10943    -0.00000    -0.43465    -0.29170

            7  
       -----------
   1       0.00380
   2      -0.02414
   3      -0.02571
   4       0.00000
   5       0.37278
   6      -0.29170
   7       0.34006
  ----------------------------------------------------------------------------
     Transition Moments    X -1.08886   Y  0.00000   Z  0.00000
     Transition Moments   XX -0.51478  XY -0.00000  XZ  0.00000
     Transition Moments   YY -0.18217  YZ  0.00000  ZZ -1.60330
     Dipole Oscillator Strength                         0.73174

     Occ.    2  a   ---  Virt.    6  a      0.35313
     Occ.    3  a   ---  Virt.    7  a     -0.88841
     Occ.    4  a   ---  Virt.    6  a     -0.29331
  ----------------------------------------------------------------------------
  Root   7 singlet a              1.263601263 a.u.               34.3844 eV 

 global array: Transition density[1:7,1:7],  handle: -992 

            1           2           3           4           5           6  
       ----------- ----------- ----------- ----------- ----------- -----------
   1      -0.00000     0.00000     0.00000     0.00000     0.00264     0.00192
   2       0.00000    -0.00000    -0.00000    -0.00000    -0.01676    -0.01218
   3       0.00000    -0.00000    -0.00000    -0.00000    -0.01785    -0.01297
   4       0.00000    -0.00000    -0.00000    -0.00000     0.00000    -0.00000
   5       0.22047    -0.79040    -0.13494    -0.00000    -0.00000    -0.14271
   6      -0.18682     0.66975     0.11434     0.00000     0.01679     0.13313
   7       0.18682    -0.66975    -0.11434    -0.00000     0.01679    -0.10873

            7  
       -----------
   1      -0.00192
   2       0.01218
   3       0.01297
   4      -0.00000
   5      -0.14271
   6       0.10873
   7      -0.13313
  ----------------------------------------------------------------------------
     Transition Moments    X -0.00000   Y  0.00000   Z -0.20491
     Transition Moments   XX -0.00000  XY -0.00000  XZ -0.87092
     Transition Moments   YY -0.00000  YZ  0.00000  ZZ -0.00000
     Dipole Oscillator Strength                         0.03537

     Occ.    2  a   ---  Virt.    7  a     -0.99846
  ----------------------------------------------------------------------------
  Root   8 singlet a              1.310863131 a.u.               35.6704 eV 

 global array: Transition density[1:7,1:7],  handle: -992 

            1           2           3           4           5           6  
       ----------- ----------- ----------- ----------- ----------- -----------
   1      -0.02268     0.07806     0.03244     0.00000    -0.00000     0.02392
   2       0.14386    -0.49524    -0.20582    -0.00000     0.00000    -0.15174
   3       0.15324    -0.52751    -0.21923    -0.00000     0.00000    -0.16163
   4      -0.00000     0.00000     0.00000     0.00000    -0.00000     0.00000
   5      -0.00000     0.00000     0.00000     0.00000    -0.18348    -0.13334
   6      -0.14413     0.49615     0.20620     0.00000     0.15548     0.26501
   7      -0.14413     0.49615     0.20620     0.00000    -0.15548     0.03903

            7  
       -----------
   1       0.02392
   2      -0.15174
   3      -0.16163
   4       0.00000
   5       0.13335
   6       0.03903
   7       0.26501
  ----------------------------------------------------------------------------
     Transition Moments    X -0.63238   Y -0.00000   Z  0.00000
     Transition Moments   XX -1.13266  XY  0.00000  XZ  0.00000
     Transition Moments   YY -0.28558  YZ  0.00000  ZZ -1.96012
     Dipole Oscillator Strength                         0.34948

     Occ.    2  a   ---  Virt.    6  a     -0.93419
     Occ.    3  a   ---  Virt.    7  a     -0.31779
     Occ.    4  a   ---  Virt.    6  a     -0.16216
  ----------------------------------------------------------------------------
  Root   9 singlet a             19.036329184 a.u.              518.0051 eV 

 global array: Transition density[1:7,1:7],  handle: -992 

            1           2           3           4           5           6  
       ----------- ----------- ----------- ----------- ----------- -----------
   1      -0.11530    -0.00343    -0.00045     0.00000     0.00000     0.00074
   2       0.73144     0.02178     0.00286    -0.00000    -0.00000    -0.00469
   3       0.77910     0.02320     0.00305    -0.00000    -0.00000    -0.00500
   4      -0.00000    -0.00000    -0.00000     0.00000    -0.00000     0.00000
   5       0.00000     0.00000     0.00000     0.00000    -0.00056    -0.00041
   6      -0.73278    -0.02182    -0.00287     0.00000     0.00048     0.00505
   7      -0.73278    -0.02182    -0.00287     0.00000    -0.00048     0.00436

            7  
       -----------
   1       0.00074
   2      -0.00469
   3      -0.00500
   4       0.00000
   5       0.00041
   6       0.00436
   7       0.00505
  ----------------------------------------------------------------------------
     Transition Moments    X -0.07053   Y  0.00000   Z -0.00000
     Transition Moments   XX  0.02554  XY -0.00000  XZ  0.00000
     Transition Moments   YY -0.01174  YZ -0.00000  ZZ -0.02509
     Dipole Oscillator Strength                         0.06313

     Occ.    1  a   ---  Virt.    6  a      1.00000
  ----------------------------------------------------------------------------
  Root  10 singlet a             19.095099250 a.u.              519.6043 eV 

 global array: Transition density[1:7,1:7],  handle: -992 

            1           2           3           4           5           6  
       ----------- ----------- ----------- ----------- ----------- -----------
   1      -0.00000    -0.00000    -0.00000     0.00000     0.00001     0.00001
   2       0.00000     0.00000     0.00000    -0.00000    -0.00007    -0.00005
   3       0.00000     0.00000     0.00000    -0.00000    -0.00007    -0.00005
   4      -0.00000    -0.00000    -0.00000     0.00000     0.00000     0.00000
   5      -0.92508    -0.02857    -0.00334     0.00000    -0.00000     0.00599
   6       0.78387     0.02421     0.00283    -0.00000     0.00007    -0.00502
   7      -0.78387    -0.02421    -0.00283     0.00000     0.00007     0.00512

            7  
       -----------
   1      -0.00001
   2       0.00005
   3       0.00005
   4       0.00000
   5       0.00599
   6      -0.00512
   7       0.00502
  ----------------------------------------------------------------------------
     Transition Moments    X -0.00000   Y  0.00000   Z  0.08055
     Transition Moments   XX  0.00000  XY -0.00000  XZ -0.01826
     Transition Moments   YY -0.00000  YZ -0.00000  ZZ -0.00000
     Dipole Oscillator Strength                         0.08260

     Occ.    1  a   ---  Virt.    7  a     -1.00000

              Target root =      1
          Target symmetry = none
      Ground state energy =    -75.322774902821
        Excitation energy =      0.376015915857
     Excited state energy =    -74.946758986964

 fn_civecs: /scratch/owengray/water_TDC_1//water_TDC_1.civecs_singlet                                                                                                                                                                                                      

  CI vectors are stored in /scratch/owengray/water_TDC_1//w
              Analysis       0.0 CPU seconds       0.0 Wall seconds
  Memleft=  26202243 doubles

 Task  times  cpu:        0.6s     wall:        0.7s


                                NWChem Input Module
                                -------------------



  Limits (a.u.) specified for the density plot:
  ---------------------------------------------

        From        To      # of spacings
X    -9.44863    10.58247        54
Y    -9.44863     9.44863        51
Z   -10.20452    10.20452        55

  Total number of grid points =                160160

  1-st set of MOs      : water_TDC_1.movecs
  CIVECS file     : water_TDC_1.civecs_singlet
  Output is written to : water_TDC_1_root1.cube
  Type of picture      : CHARGE DENSITY
  Format used          : Gaussian9x Cube
  Spin                 : TOTAL   
  The density is computed using all orbitals
  The density is computed on the specified grid
  Root:                     1
  *** tmom(2)***:    2.4057456380857355E-010
  *** tmom(3)***:   -8.1971856695259873E-002
  *** tmom(4)***:    1.5294344927316129E-010
  max element   0.18411497032902424     

  Sum of elements      =                        0.00000
  Integration volume   =                        0.05100
  Integrated Charge    =                        0.00000

 Task  times  cpu:        0.2s     wall:        0.2s


                                NWChem Input Module
                                -------------------



  Limits (a.u.) specified for the density plot:
  ---------------------------------------------

        From        To      # of spacings
X    -9.44863    10.58247        54
Y    -9.44863     9.44863        51
Z   -10.20452    10.20452        55

  Total number of grid points =                160160

  1-st set of MOs      : water_TDC_1.movecs
  CIVECS file     : water_TDC_1.civecs_singlet
  Output is written to : water_TDC_1_root2.cube
  Type of picture      : CHARGE DENSITY
  Format used          : Gaussian9x Cube
  Spin                 : TOTAL   
  The density is computed using all orbitals
  The density is computed on the specified grid
  Root:                     2
  *** tmom(2)***:    4.0552287636988655E-011
  *** tmom(3)***:    4.8180673819358175E-008
  *** tmom(4)***:    1.8906370921483828E-010
  max element   0.13375798105052078     

  Sum of elements      =                       -0.00000
  Integration volume   =                        0.05100
  Integrated Charge    =                       -0.00000

 Task  times  cpu:        0.2s     wall:        0.2s


                                NWChem Input Module
                                -------------------


 Summary of allocated global arrays
-----------------------------------
  No active global arrays



                         GA Statistics for process    0
                         ------------------------------

       create   destroy   get      put      acc     scatter   gather  read&inc
calls: 1790     1790     1.18e+04 2452     2964       40        0      685     
number of processes/call 1.19e+00 1.35e+00 1.69e+00 5.75e+00 0.00e+00
bytes total:             1.39e+06 4.46e+05 4.65e+05 1.28e+03 0.00e+00 5.48e+03
bytes remote:            1.12e+05 3.18e+04 7.82e+04 -3.60e+03 0.00e+00 0.00e+00
Max memory consumed for GA by this process: 103880 bytes

MA_summarize_allocated_blocks: starting scan ...
MA_summarize_allocated_blocks: scan completed: 0 heap blocks, 0 stack blocks
MA usage statistics:

	allocation statistics:
					      heap	     stack
					      ----	     -----
	current number of blocks	         0	         0
	maximum number of blocks	        23	        50
	current total bytes		         0	         0
	maximum total bytes		    302032	  22510184
	maximum total K-bytes		       303	     22511
	maximum total M-bytes		         1	        23


                                     CITATION
                                     --------
                Please cite the following reference when publishing
                           results obtained with NWChem:

                 M. Valiev, E.J. Bylaska, N. Govind, K. Kowalski,
              T.P. Straatsma, H.J.J. van Dam, D. Wang, J. Nieplocha,
                        E. Apra, T.L. Windus, W.A. de Jong
                 "NWChem: a comprehensive and scalable open-source
                  solution for large scale molecular simulations"
                      Comput. Phys. Commun. 181, 1477 (2010)
                           doi:10.1016/j.cpc.2010.04.018

                                      AUTHORS
                                      -------
          E. Apra, E. J. Bylaska, W. A. de Jong, N. Govind, K. Kowalski,
       T. P. Straatsma, M. Valiev, H. J. J. van Dam, D. Wang, T. L. Windus,
        J. Hammond, J. Autschbach, K. Bhaskaran-Nair, J. Brabec, K. Lopata,
        S. Krishnamoorthy, W. Ma, M. Klemm, O. Villa, Y. Chen, V. Anisimov,
    F. Aquino, S. Hirata, M. T. Hackler, T. Risthaus, M. Malagoli, A. Marenich,
   A. Otero-de-la-Roza, J. Mullin, P. Nichols, R. Peverati, J. Pittner, Y. Zhao,
         P.-D. Fan, A. Fonari, R. J. Harrison, M. Dupuis, D. Silverstein,
    D. M. A. Smith, J. Nieplocha, V. Tipparaju, M. Krishnan, B. E. Van Kuiken,
        A. Vazquez-Mayagoitia, L. Jensen, M. Swart, Q. Wu, T. Van Voorhis,
     A. A. Auer, M. Nooijen, L. D. Crosby, E. Brown, G. Cisneros, G. I. Fann,
   H. Fruchtl, J. Garza, K. Hirao, R. A. Kendall, J. A. Nichols, K. Tsemekhman,
    K. Wolinski, J. Anchell, D. E. Bernholdt, P. Borowski, T. Clark, D. Clerc,
   H. Dachsel, M. J. O. Deegan, K. Dyall, D. Elwood, E. Glendening, M. Gutowski,
   A. C. Hess, J. Jaffe, B. G. Johnson, J. Ju, R. Kobayashi, R. Kutteh, Z. Lin,
   R. Littlefield, X. Long, B. Meng, T. Nakajima, S. Niu, L. Pollack, M. Rosing,
   K. Glaesemann, G. Sandrone, M. Stave, H. Taylor, G. Thomas, J. H. van Lenthe,
                               A. T. Wong, Z. Zhang.

 Total times  cpu:        7.1s     wall:       11.1s
