 argument  1 = /scratch/owengray/water_TDC_13/water_TDC_13.nw



============================== echo of input deck ==============================
echo

start water_TDC_13
title "water TDC calculation number 13 in STO-3G basis set"
scratch_dir /scratch/owengray/water_TDC_13/
geometry units au noautoz nocenter
symmetry c1
	O	0.0	0	0
	H	0.758602	0	0.504284
	H	0.758602	0	-0.504284
end
basis
	H library STO-3G
	O library STO-3G
end
charge 0
scf
	rohf
	vectors output water_TDC_13.movecs
end
task scf optimize
dft
	xc bhlyp
end
task dft optimize
tddft
	cis
	print debug
	notriplet
	civecs
	grad
		root 1
	end
end
task tddft energy
dplot
	root 1
	limitxyz
		-1.0	1.758602	100
		-1	1	100
		-1.504284	1.504284	100
		gaussian
		output water_TDC_13_root1.cube
end
task dplot
================================================================================


                                         
                                         


              Northwest Computational Chemistry Package (NWChem) 6.6
              ------------------------------------------------------


                    Environmental Molecular Sciences Laboratory
                       Pacific Northwest National Laboratory
                                Richland, WA 99352

                              Copyright (c) 1994-2015
                       Pacific Northwest National Laboratory
                            Battelle Memorial Institute

             NWChem is an open-source computational chemistry package
                        distributed under the terms of the
                      Educational Community License (ECL) 2.0
             A copy of the license is included with this distribution
                              in the LICENSE.TXT file

                                  ACKNOWLEDGMENT
                                  --------------

            This software and its documentation were developed at the
            EMSL at Pacific Northwest National Laboratory, a multiprogram
            national laboratory, operated for the U.S. Department of Energy
            by Battelle under Contract Number DE-AC05-76RL01830. Support
            for this work was provided by the Department of Energy Office
            of Biological and Environmental Research, Office of Basic
            Energy Sciences, and the Office of Advanced Scientific Computing.


           Job information
           ---------------

    hostname        = g25
    program         = /cm/shared/NWChem/bin/nwchem
    date            = Wed Jun 29 14:17:23 2016

    compiled        = Wed_Jan_27_15:20:39_2016
    source          = /cm/shared/nwchem-6.6
    nwchem branch   = 6.6
    nwchem revision = 27746
    ga revision     = 10594
    input           = /scratch/owengray/water_TDC_13/water_TDC_13.nw
    prefix          = water_TDC_13.
    data base       = ./water_TDC_13.db
    status          = startup
    nproc           =       20
    time left       =     -1s



           Memory information
           ------------------

    heap     =  210617852 doubles =   1606.9 Mbytes
    stack    =  210617857 doubles =   1606.9 Mbytes
    global   =  421235712 doubles =   3213.8 Mbytes (distinct from heap & stack)
    total    =  842471421 doubles =   6427.5 Mbytes
    verify   = yes
    hardfail = no 


           Directory information
           ---------------------

  0 permanent = .
  0 scratch   = /scratch/owengray/water_TDC_13/




                                NWChem Input Module
                                -------------------


                water TDC calculation number 13 in STO-3G basis set
                ---------------------------------------------------
 Turning off AUTOSYM since
 SYMMETRY directive was detected!



                             Geometry "geometry" -> ""
                             -------------------------

 Output coordinates in a.u. (scale by  1.000000000 to convert to a.u.)

  No.       Tag          Charge          X              Y              Z
 ---- ---------------- ---------- -------------- -------------- --------------
    1 O                    8.0000     0.00000000     0.00000000     0.00000000
    2 H                    1.0000     0.75860200     0.00000000     0.50428400
    3 H                    1.0000     0.75860200     0.00000000    -0.50428400

      Atomic Mass 
      ----------- 

      O                 15.994910
      H                  1.007825


 Effective nuclear repulsion energy (a.u.)      18.5561212901

            Nuclear Dipole moment (a.u.) 
            ----------------------------
        X                 Y               Z
 ---------------- ---------------- ----------------
     1.5172040000     0.0000000000     0.0000000000


            XYZ format geometry
            -------------------
     3
 geometry
 O                     0.00000000     0.00000000     0.00000000
 H                     0.40143492     0.00000000     0.26685562
 H                     0.40143492     0.00000000    -0.26685562

 ==============================================================================
                                internuclear distances
 ------------------------------------------------------------------------------
       center one      |      center two      | atomic units |       a.u.
 ------------------------------------------------------------------------------
    2 H                |   1 O                |     0.91092  |     0.91092
    3 H                |   1 O                |     0.91092  |     0.91092
    3 H                |   2 H                |     1.00857  |     1.00857
 ------------------------------------------------------------------------------
                         number of included internuclear distances:          3
 ==============================================================================



 ==============================================================================
                                 internuclear angles
 ------------------------------------------------------------------------------
        center 1       |       center 2       |       center 3       |  degrees
 ------------------------------------------------------------------------------
    2 H                |   1 O                |   3 H                |    67.23
    2 H                |   1 O                |   3 H                |    67.23
    3 H                |   1 O                |   2 H                |    67.23
 ------------------------------------------------------------------------------
                            number of included internuclear angles:          3
 ==============================================================================



  library name resolved from: environment
  library file name is: </cm/shared/NWChem/data/libraries/>
  
                      Basis "ao basis" -> "" (cartesian)
                      -----
  H (Hydrogen)
  ------------
            Exponent  Coefficients 
       -------------- ---------------------------------------------------------
  1 S  3.42525091E+00  0.154329
  1 S  6.23913730E-01  0.535328
  1 S  1.68855400E-01  0.444635

  O (Oxygen)
  ----------
            Exponent  Coefficients 
       -------------- ---------------------------------------------------------
  1 S  1.30709320E+02  0.154329
  1 S  2.38088610E+01  0.535328
  1 S  6.44360830E+00  0.444635

  2 S  5.03315130E+00 -0.099967
  2 S  1.16959610E+00  0.399513
  2 S  3.80389000E-01  0.700115

  3 P  5.03315130E+00  0.155916
  3 P  1.16959610E+00  0.607684
  3 P  3.80389000E-01  0.391957



 Summary of "ao basis" -> "" (cartesian)
 ------------------------------------------------------------------------------
       Tag                 Description            Shells   Functions and Types
 ---------------- ------------------------------  ------  ---------------------
 H                           STO-3G                  1        1   1s
 O                           STO-3G                  3        5   2s1p




                           NWChem Geometry Optimization
                           ----------------------------




                water TDC calculation number 13 in STO-3G basis set


 maximum gradient threshold         (gmax) =   0.000450
 rms gradient threshold             (grms) =   0.000300
 maximum cartesian step threshold   (xmax) =   0.001800
 rms cartesian step threshold       (xrms) =   0.001200
 fixed trust radius                (trust) =   0.300000
 maximum step size to saddle      (sadstp) =   0.100000
 energy precision                  (eprec) =   1.0D-07
 maximum number of steps          (nptopt) =   20
 initial hessian option           (inhess) =    0
 line search option               (linopt) =    1
 hessian update option            (modupd) =    1
 saddle point option              (modsad) =    0
 initial eigen-mode to follow     (moddir) =    0
 initial variable to follow       (vardir) =    0
 follow first negative mode     (firstneg) =    T
 apply conjugacy                    (opcg) =    F
 source of zmatrix                         =           


          -------------------
          Energy Minimization
          -------------------


 Using diagonal initial Hessian 

          --------
          Step   0
          --------


                         Geometry "geometry" -> "geometry"
                         ---------------------------------

 Output coordinates in a.u. (scale by  1.000000000 to convert to a.u.)

  No.       Tag          Charge          X              Y              Z
 ---- ---------------- ---------- -------------- -------------- --------------
    1 O                    8.0000     0.00000000     0.00000000     0.00000000
    2 H                    1.0000     0.75860200     0.00000000     0.50428400
    3 H                    1.0000     0.75860200     0.00000000    -0.50428400

      Atomic Mass 
      ----------- 

      O                 15.994910
      H                  1.007825


 Effective nuclear repulsion energy (a.u.)      18.5561212901

            Nuclear Dipole moment (a.u.) 
            ----------------------------
        X                 Y               Z
 ---------------- ---------------- ----------------
     1.5172040000     0.0000000000     0.0000000000

                                 NWChem SCF Module
                                 -----------------


                water TDC calculation number 13 in STO-3G basis set



  ao basis        = "ao basis"
  functions       =     7
  atoms           =     3
  closed shells   =     5
  open shells     =     0
  charge          =   0.00
  wavefunction    = RHF 
  input vectors   = atomic
  output vectors  = ./water_TDC_13.movecs
  use symmetry    = F
  symmetry adapt  = F


 Summary of "ao basis" -> "ao basis" (cartesian)
 ------------------------------------------------------------------------------
       Tag                 Description            Shells   Functions and Types
 ---------------- ------------------------------  ------  ---------------------
 H                           STO-3G                  1        1   1s
 O                           STO-3G                  3        5   2s1p



 Forming initial guess at       0.1s


      Superposition of Atomic Density Guess
      -------------------------------------

 Sum of atomic energies:         -74.71095592

      Non-variational initial energy
      ------------------------------

 Total energy =     -75.236609
 1-e energy   =    -134.155736
 2-e energy   =      40.363006
 HOMO         =      -0.531236
 LUMO         =       0.853280


 Starting SCF solution at       0.1s



 ----------------------------------------------
         Quadratically convergent ROHF

 Convergence threshold     :          1.000E-04
 Maximum no. of iterations :           30
 Final Fock-matrix accuracy:          1.000E-07
 ----------------------------------------------


              iter       energy          gnorm     gmax       time
             ----- ------------------- --------- --------- --------
                 1      -72.6174409343  6.12D-01  5.88D-01      0.1
                 2      -72.6386145457  1.10D-01  1.01D-01      0.1
                 3      -72.6387713783  8.05D-03  5.31D-03      0.1
                 4      -72.6387734058  2.39D-05  1.78D-05      0.1


       Final RHF  results 
       ------------------ 

         Total SCF energy =    -72.638773405844
      One-electron energy =   -133.527688535089
      Two-electron energy =     42.332793839156
 Nuclear repulsion energy =     18.556121290089

        Time for solution =      0.0s


             Final eigenvalues
             -----------------

              1      
    1  -20.5330
    2   -1.8810
    3   -0.8151
    4   -0.6309
    5   -0.5711
    6    0.8824
    7    1.6397

                       ROHF Final Molecular Orbital Analysis
                       -------------------------------------

 Vector    2  Occ=2.000000D+00  E=-1.880971D+00
              MO Center=  3.1D-01, -1.6D-18,  2.7D-16, r^2= 3.4D-01
   Bfn.  Coefficient  Atom+Function         Bfn.  Coefficient  Atom+Function  
  ----- ------------  ---------------      ----- ------------  ---------------
     2      0.864107  1 O  s                  3      0.516112  1 O  px         
     1     -0.228477  1 O  s          

 Vector    3  Occ=2.000000D+00  E=-8.150934D-01
              MO Center=  1.2D-01, -4.3D-31,  4.2D-16, r^2= 5.1D-01
   Bfn.  Coefficient  Atom+Function         Bfn.  Coefficient  Atom+Function  
  ----- ------------  ---------------      ----- ------------  ---------------
     5      0.713095  1 O  pz                 6      0.536601  2 H  s          
     7     -0.536601  3 H  s          

 Vector    4  Occ=2.000000D+00  E=-6.308700D-01
              MO Center= -2.9D-01,  1.3D-16, -1.3D-15, r^2= 3.4D-01
   Bfn.  Coefficient  Atom+Function         Bfn.  Coefficient  Atom+Function  
  ----- ------------  ---------------      ----- ------------  ---------------
     3      0.808947  1 O  px                 2     -0.633078  1 O  s          

 Vector    5  Occ=2.000000D+00  E=-5.710710D-01
              MO Center= -3.2D-32, -1.3D-16, -4.5D-32, r^2= 4.2D-01
   Bfn.  Coefficient  Atom+Function         Bfn.  Coefficient  Atom+Function  
  ----- ------------  ---------------      ----- ------------  ---------------
     4      1.000000  1 O  py         

 Vector    6  Occ=0.000000D+00  E= 8.823622D-01
              MO Center=  5.9D-01,  9.1D-20, -3.1D-15, r^2= 1.2D+00
   Bfn.  Coefficient  Atom+Function         Bfn.  Coefficient  Atom+Function  
  ----- ------------  ---------------      ----- ------------  ---------------
     2      2.420848  1 O  s                  6     -1.495765  2 H  s          
     7     -1.495765  3 H  s                  3      1.132189  1 O  px         

 Vector    7  Occ=0.000000D+00  E= 1.639749D+00
              MO Center=  3.2D-01, -4.9D-32,  4.6D-15, r^2= 7.0D-01
   Bfn.  Coefficient  Atom+Function         Bfn.  Coefficient  Atom+Function  
  ----- ------------  ---------------      ----- ------------  ---------------
     6      2.327157  2 H  s                  7     -2.327157  3 H  s          
     5     -1.358061  1 O  pz         


 center of mass
 --------------
 x =   0.08489887 y =   0.00000000 z =   0.00000000

 moments of inertia (a.u.)
 ------------------
           0.512584537131           0.000000000000           0.000000000000
           0.000000000000           1.542727912067           0.000000000000
           0.000000000000           0.000000000000           1.030143374936

  Mulliken analysis of the total density
  --------------------------------------

    Atom       Charge   Shell Charges
 -----------   ------   -------------------------------------------------------
    1 O    8     9.39   2.00  2.09  5.31
    2 H    1     0.30   0.30
    3 H    1     0.30   0.30

       Multipole analysis of the density wrt the origin
       ------------------------------------------------

     L   x y z        total         open         nuclear
     -   - - -        -----         ----         -------
     0   0 0 0     -0.000000      0.000000     10.000000

     1   1 0 0      1.017575      0.000000      1.517204
     1   0 1 0     -0.000000      0.000000      0.000000
     1   0 0 1      0.000000      0.000000      0.000000

     2   2 0 0     -3.261307      0.000000      1.150954
     2   1 1 0      0.000000      0.000000      0.000000
     2   1 0 1      0.000000      0.000000      0.000000
     2   0 2 0     -4.132451      0.000000      0.000000
     2   0 1 1      0.000000      0.000000      0.000000
     2   0 0 2     -3.898145      0.000000      0.508605

                              NWChem Gradients Module
                              -----------------------


                water TDC calculation number 13 in STO-3G basis set


  wavefunction    =   RHF     



                         RHF ENERGY GRADIENTS

    atom               coordinates                        gradient
                 x          y          z           x          y          z
   1 O       0.000000   0.000000   0.000000    6.433424  -0.000000   0.000000
   2 H       0.758602   0.000000   0.504284   -3.216712   0.000000  -3.047886
   3 H       0.758602   0.000000  -0.504284   -3.216712  -0.000000   3.047886

                 ----------------------------------------
                 |  Time  |  1-e(secs)   |  2-e(secs)   |
                 ----------------------------------------
                 |  CPU   |       0.00   |       0.00   |
                 ----------------------------------------
                 |  WALL  |       0.00   |       0.00   |
                 ----------------------------------------

@ Step       Energy      Delta E   Gmax     Grms     Xrms     Xmax   Walltime
@ ---- ---------------- -------- -------- -------- -------- -------- --------
@    0     -72.63877341  0.0D+00  6.43342  2.99375  0.00000  0.00000      0.2
                                                                    

 Restricting large step in mode    1 eval= 6.6D-01 step=-4.3D-01 new=-3.0D-01
 Restricting large step in mode    3 eval= 2.2D+00 step=-4.1D+00 new=-3.0D-01
 Restricting overall step due to large component. alpha=  0.89
                                 NWChem SCF Module
                                 -----------------


                water TDC calculation number 13 in STO-3G basis set



  ao basis        = "ao basis"
  functions       =     7
  atoms           =     3
  closed shells   =     5
  open shells     =     0
  charge          =   0.00
  wavefunction    = RHF 
  input vectors   = ./water_TDC_13.movecs
  output vectors  = ./water_TDC_13.movecs
  use symmetry    = F
  symmetry adapt  = F


 Summary of "ao basis" -> "ao basis" (cartesian)
 ------------------------------------------------------------------------------
       Tag                 Description            Shells   Functions and Types
 ---------------- ------------------------------  ------  ---------------------
 H                           STO-3G                  1        1   1s
 O                           STO-3G                  3        5   2s1p



 Forming initial guess at       0.2s


 Loading old vectors from job with title :

water TDC calculation number 13 in STO-3G basis set


 Starting SCF solution at       0.2s



 ----------------------------------------------
         Quadratically convergent ROHF

 Convergence threshold     :          1.000E-04
 Maximum no. of iterations :           30
 Final Fock-matrix accuracy:          1.000E-07
 ----------------------------------------------


              iter       energy          gnorm     gmax       time
             ----- ------------------- --------- --------- --------
                 1      -73.8049299762  1.84D+00  1.52D+00      0.1
                 2      -74.0217359058  5.65D-01  4.18D-01      0.1
                 3      -74.0362440457  1.16D-01  1.10D-01      0.1
                 4      -74.0369585666  1.75D-02  1.40D-02      0.1
                 5      -74.0369806843  2.22D-04  1.58D-04      0.1
                 6      -74.0369806902  3.02D-06  2.14D-06      0.1


       Final RHF  results 
       ------------------ 

         Total SCF energy =    -74.036980690246
      One-electron energy =   -128.087683446528
      Two-electron energy =     40.456659226678
 Nuclear repulsion energy =     13.594043529604

        Time for solution =      0.0s


             Final eigenvalues
             -----------------

              1      
    1  -20.2826
    2   -1.6655
    3   -0.6124
    4   -0.5657
    5   -0.4609
    6    0.7468
    7    1.3394

                       ROHF Final Molecular Orbital Analysis
                       -------------------------------------

 Vector    2  Occ=2.000000D+00  E=-1.665545D+00
              MO Center=  2.3D-01, -6.9D-19, -1.4D-07, r^2= 4.3D-01
   Bfn.  Coefficient  Atom+Function         Bfn.  Coefficient  Atom+Function  
  ----- ------------  ---------------      ----- ------------  ---------------
     2      0.624249  1 O  s                  3      0.336698  1 O  px         
     1     -0.202427  1 O  s                  6      0.181729  2 H  s          
     7      0.181730  3 H  s          

 Vector    3  Occ=2.000000D+00  E=-6.124100D-01
              MO Center= -3.2D-01,  2.5D-18, -1.7D-07, r^2= 4.9D-01
   Bfn.  Coefficient  Atom+Function         Bfn.  Coefficient  Atom+Function  
  ----- ------------  ---------------      ----- ------------  ---------------
     2      0.886328  1 O  s                  3     -0.589675  1 O  px         
     6     -0.249874  2 H  s                  7     -0.249874  3 H  s          
     1     -0.169595  1 O  s          

 Vector    4  Occ=2.000000D+00  E=-5.656947D-01
              MO Center= -2.1D-02,  4.1D-25, -3.7D-08, r^2= 5.3D-01
   Bfn.  Coefficient  Atom+Function         Bfn.  Coefficient  Atom+Function  
  ----- ------------  ---------------      ----- ------------  ---------------
     5      0.799049  1 O  pz                 6      0.536240  2 H  s          
     7     -0.536240  3 H  s          

 Vector    5  Occ=2.000000D+00  E=-4.609447D-01
              MO Center= -1.6D-01, -1.5D-18, -1.8D-07, r^2= 4.2D-01
   Bfn.  Coefficient  Atom+Function         Bfn.  Coefficient  Atom+Function  
  ----- ------------  ---------------      ----- ------------  ---------------
     4      1.000000  1 O  py         

 Vector    6  Occ=0.000000D+00  E= 7.468180D-01
              MO Center=  4.0D-01, -3.2D-19,  4.4D-07, r^2= 8.3D-01
   Bfn.  Coefficient  Atom+Function         Bfn.  Coefficient  Atom+Function  
  ----- ------------  ---------------      ----- ------------  ---------------
     2      1.242860  1 O  s                  3      1.097843  1 O  px         
     6     -0.891520  2 H  s                  7     -0.891517  3 H  s          

 Vector    7  Occ=0.000000D+00  E= 1.339384D+00
              MO Center=  3.7D-01,  3.1D-24, -5.3D-07, r^2= 6.7D-01
   Bfn.  Coefficient  Atom+Function         Bfn.  Coefficient  Atom+Function  
  ----- ------------  ---------------      ----- ------------  ---------------
     6      2.028265  2 H  s                  7     -2.028267  3 H  s          
     5     -0.890033  1 O  pz         


 center of mass
 --------------
 x =  -0.16473943 y =  -0.00000000 z =  -0.00000028

 moments of inertia (a.u.)
 ------------------
           0.384848771176          -0.000000000000          -0.000001328537
          -0.000000000000           2.999635814503          -0.000000000000
          -0.000001328537          -0.000000000000           2.614787043326

  Mulliken analysis of the total density
  --------------------------------------

    Atom       Charge   Shell Charges
 -----------   ------   -------------------------------------------------------
    1 O    8     8.77   2.00  1.95  4.83
    2 H    1     0.61   0.61
    3 H    1     0.61   0.61

       Multipole analysis of the density wrt the origin
       ------------------------------------------------

     L   x y z        total         open         nuclear
     -   - - -        -----         ----         -------
     0   0 0 0     -0.000000      0.000000     10.000000

     1   1 0 0      1.036832      0.000000     -0.582796
     1   0 1 0     -0.000000      0.000000     -0.000000
     1   0 0 1      0.000000      0.000000     -0.000002

     2   2 0 0     -3.554757      0.000000      2.371115
     2   1 1 0     -0.000000      0.000000      0.000000
     2   1 0 1      0.000000      0.000000      0.000001
     2   0 2 0     -4.343379      0.000000      0.000000
     2   0 1 1     -0.000000      0.000000      0.000000
     2   0 0 2     -4.272863      0.000000      0.381861

 Line search: 
     step= 0.89 grad=-2.8D+00 hess= 1.4D+00 energy=    -74.036981 mode=downhill
 new step= 1.02                   predicted energy=    -74.059351

          --------
          Step   1
          --------


                         Geometry "geometry" -> "geometry"
                         ---------------------------------

 Output coordinates in a.u. (scale by  1.000000000 to convert to a.u.)

  No.       Tag          Charge          X              Y              Z
 ---- ---------------- ---------- -------------- -------------- --------------
    1 O                    8.0000    -0.34304860    -0.00000000    -0.00000039
    2 H                    1.0000     0.93012659     0.00000000     0.42729469
    3 H                    1.0000     0.93012601    -0.00000000    -0.42729430

      Atomic Mass 
      ----------- 

      O                 15.994910
      H                  1.007825


 Effective nuclear repulsion energy (a.u.)      13.0840901244

            Nuclear Dipole moment (a.u.) 
            ----------------------------
        X                 Y               Z
 ---------------- ---------------- ----------------
    -0.8841361870    -0.0000000000    -0.0000027214

                                 NWChem SCF Module
                                 -----------------


                water TDC calculation number 13 in STO-3G basis set



  ao basis        = "ao basis"
  functions       =     7
  atoms           =     3
  closed shells   =     5
  open shells     =     0
  charge          =   0.00
  wavefunction    = RHF 
  input vectors   = ./water_TDC_13.movecs
  output vectors  = ./water_TDC_13.movecs
  use symmetry    = F
  symmetry adapt  = F


 Summary of "ao basis" -> "ao basis" (cartesian)
 ------------------------------------------------------------------------------
       Tag                 Description            Shells   Functions and Types
 ---------------- ------------------------------  ------  ---------------------
 H                           STO-3G                  1        1   1s
 O                           STO-3G                  3        5   2s1p



 Forming initial guess at       0.2s


 Loading old vectors from job with title :

water TDC calculation number 13 in STO-3G basis set


 Starting SCF solution at       0.2s



 ----------------------------------------------
         Quadratically convergent ROHF

 Convergence threshold     :          1.000E-04
 Maximum no. of iterations :           30
 Final Fock-matrix accuracy:          1.000E-07
 ----------------------------------------------


              iter       energy          gnorm     gmax       time
             ----- ------------------- --------- --------- --------
                 1      -74.1127234371  1.91D-01  1.49D-01      0.2
                 2      -74.1152281402  4.49D-02  3.57D-02      0.2
                 3      -74.1154567190  1.10D-03  9.83D-04      0.2
                 4      -74.1154567987  3.38D-07  3.07D-07      0.2


       Final RHF  results 
       ------------------ 

         Total SCF energy =    -74.115456798722
      One-electron energy =   -127.392001118761
      Two-electron energy =     40.192454195611
 Nuclear repulsion energy =     13.084090124429

        Time for solution =      0.0s


             Final eigenvalues
             -----------------

              1      
    1  -20.2665
    2   -1.6305
    3   -0.6166
    4   -0.5401
    5   -0.4499
    6    0.7108
    7    1.3116

                       ROHF Final Molecular Orbital Analysis
                       -------------------------------------

 Vector    2  Occ=2.000000D+00  E=-1.630491D+00
              MO Center=  2.2D-01, -5.1D-19, -1.5D-07, r^2= 4.4D-01
   Bfn.  Coefficient  Atom+Function         Bfn.  Coefficient  Atom+Function  
  ----- ------------  ---------------      ----- ------------  ---------------
     2      0.615375  1 O  s                  3      0.312818  1 O  px         
     1     -0.200073  1 O  s                  6      0.195063  2 H  s          
     7      0.195063  3 H  s          

 Vector    3  Occ=2.000000D+00  E=-6.165799D-01
              MO Center= -3.1D-01,  2.4D-18, -1.8D-07, r^2= 5.3D-01
   Bfn.  Coefficient  Atom+Function         Bfn.  Coefficient  Atom+Function  
  ----- ------------  ---------------      ----- ------------  ---------------
     2      0.901953  1 O  s                  3     -0.558554  1 O  px         
     6     -0.271042  2 H  s                  7     -0.271042  3 H  s          
     1     -0.172937  1 O  s          

 Vector    4  Occ=2.000000D+00  E=-5.400800D-01
              MO Center= -4.8D-02,  4.8D-25, -5.0D-08, r^2= 5.3D-01
   Bfn.  Coefficient  Atom+Function         Bfn.  Coefficient  Atom+Function  
  ----- ------------  ---------------      ----- ------------  ---------------
     5      0.815735  1 O  pz                 6      0.524199  2 H  s          
     7     -0.524199  3 H  s          

 Vector    5  Occ=2.000000D+00  E=-4.498541D-01
              MO Center= -1.8D-01, -1.5D-18, -2.1D-07, r^2= 4.2D-01
   Bfn.  Coefficient  Atom+Function         Bfn.  Coefficient  Atom+Function  
  ----- ------------  ---------------      ----- ------------  ---------------
     4      1.000000  1 O  py         

 Vector    6  Occ=0.000000D+00  E= 7.108317D-01
              MO Center=  3.6D-01, -3.7D-19,  4.6D-07, r^2= 8.1D-01
   Bfn.  Coefficient  Atom+Function         Bfn.  Coefficient  Atom+Function  
  ----- ------------  ---------------      ----- ------------  ---------------
     2      1.125586  1 O  s                  3      1.091175  1 O  px         
     6     -0.830079  2 H  s                  7     -0.830076  3 H  s          

 Vector    7  Occ=0.000000D+00  E= 1.311560D+00
              MO Center=  3.8D-01,  4.3D-24, -5.6D-07, r^2= 6.7D-01
   Bfn.  Coefficient  Atom+Function         Bfn.  Coefficient  Atom+Function  
  ----- ------------  ---------------      ----- ------------  ---------------
     6      2.025694  2 H  s                  7     -2.025697  3 H  s          
     5     -0.839360  1 O  pz         


 center of mass
 --------------
 x =  -0.20056136 y =  -0.00000000 z =  -0.00000032

 moments of inertia (a.u.)
 ------------------
           0.368018561394          -0.000000000000          -0.000001580888
          -0.000000000000           3.269674008577          -0.000000000000
          -0.000001580888          -0.000000000000           2.901655447183

  Mulliken analysis of the total density
  --------------------------------------

    Atom       Charge   Shell Charges
 -----------   ------   -------------------------------------------------------
    1 O    8     8.71   2.00  1.95  4.77
    2 H    1     0.64   0.64
    3 H    1     0.64   0.64

       Multipole analysis of the density wrt the origin
       ------------------------------------------------

     L   x y z        total         open         nuclear
     -   - - -        -----         ----         -------
     0   0 0 0     -0.000000      0.000000     10.000000

     1   1 0 0      1.014693      0.000000     -0.884136
     1   0 1 0     -0.000000      0.000000     -0.000000
     1   0 0 1      0.000000      0.000000     -0.000003

     2   2 0 0     -3.604305      0.000000      2.671729
     2   1 1 0     -0.000000      0.000000      0.000000
     2   1 0 1      0.000000      0.000000      0.000002
     2   0 2 0     -4.375243      0.000000      0.000000
     2   0 1 1     -0.000000      0.000000      0.000000
     2   0 0 2     -4.315385      0.000000      0.365161

                              NWChem Gradients Module
                              -----------------------


                water TDC calculation number 13 in STO-3G basis set


  wavefunction    =   RHF     



                         RHF ENERGY GRADIENTS

    atom               coordinates                        gradient
                 x          y          z           x          y          z
   1 O      -0.343049  -0.000000  -0.000000    1.491840  -0.000000  -0.000001
   2 H       0.930127   0.000000   0.427295   -0.745919   0.000000  -1.407497
   3 H       0.930126  -0.000000  -0.427294   -0.745921  -0.000000   1.407497

                 ----------------------------------------
                 |  Time  |  1-e(secs)   |  2-e(secs)   |
                 ----------------------------------------
                 |  CPU   |       0.00   |       0.00   |
                 ----------------------------------------
                 |  WALL  |       0.00   |       0.00   |
                 ----------------------------------------

  Step       Energy      Delta E   Gmax     Grms     Xrms     Xmax   Walltime
  ---- ---------------- -------- -------- -------- -------- -------- --------
@    1     -74.11545680 -1.5D+00  1.49184  0.90065  0.14468  0.34305      0.3
                                                                    

 Restricting large step in mode    1 eval= 6.6D-01 step=-1.7D+00 new=-3.0D-01
                                 NWChem SCF Module
                                 -----------------


                water TDC calculation number 13 in STO-3G basis set



  ao basis        = "ao basis"
  functions       =     7
  atoms           =     3
  closed shells   =     5
  open shells     =     0
  charge          =   0.00
  wavefunction    = RHF 
  input vectors   = ./water_TDC_13.movecs
  output vectors  = ./water_TDC_13.movecs
  use symmetry    = F
  symmetry adapt  = F


 Summary of "ao basis" -> "ao basis" (cartesian)
 ------------------------------------------------------------------------------
       Tag                 Description            Shells   Functions and Types
 ---------------- ------------------------------  ------  ---------------------
 H                           STO-3G                  1        1   1s
 O                           STO-3G                  3        5   2s1p



 Forming initial guess at       0.3s


 Loading old vectors from job with title :

water TDC calculation number 13 in STO-3G basis set


 Starting SCF solution at       0.3s



 ----------------------------------------------
         Quadratically convergent ROHF

 Convergence threshold     :          1.000E-04
 Maximum no. of iterations :           30
 Final Fock-matrix accuracy:          1.000E-07
 ----------------------------------------------


              iter       energy          gnorm     gmax       time
             ----- ------------------- --------- --------- --------
                 1      -74.5714997867  1.64D-01  1.47D-01      0.2
                 2      -74.5744897127  5.44D-02  4.77D-02      0.2
                 3      -74.5747336968  2.21D-04  1.99D-04      0.2
                 4      -74.5747336981  4.37D-06  3.25D-06      0.2


       Final RHF  results 
       ------------------ 

         Total SCF energy =    -74.574733698087
      One-electron energy =   -126.176214421965
      Two-electron energy =     39.733665938661
 Nuclear repulsion energy =     11.867814785217

        Time for solution =      0.0s


             Final eigenvalues
             -----------------

              1      
    1  -20.2566
    2   -1.5086
    3   -0.5795
    4   -0.5762
    5   -0.4335
    6    0.7333
    7    1.0181

                       ROHF Final Molecular Orbital Analysis
                       -------------------------------------

 Vector    2  Occ=2.000000D+00  E=-1.508576D+00
              MO Center=  1.7D-01, -2.9D-19,  3.3D-07, r^2= 4.6D-01
   Bfn.  Coefficient  Atom+Function         Bfn.  Coefficient  Atom+Function  
  ----- ------------  ---------------      ----- ------------  ---------------
     2      0.696692  1 O  s                  3      0.281129  1 O  px         
     1     -0.212016  1 O  s                  6      0.173126  2 H  s          
     7      0.173125  3 H  s          

 Vector    3  Occ=2.000000D+00  E=-5.795141D-01
              MO Center= -3.0D-01,  2.3D-18, -6.6D-07, r^2= 5.4D-01
   Bfn.  Coefficient  Atom+Function         Bfn.  Coefficient  Atom+Function  
  ----- ------------  ---------------      ----- ------------  ---------------
     2      0.794748  1 O  s                  3     -0.635103  1 O  px         
     6     -0.257700  2 H  s                  7     -0.257693  3 H  s          
     1     -0.154065  1 O  s          

 Vector    4  Occ=2.000000D+00  E=-5.762005D-01
              MO Center=  1.1D-02,  2.4D-23,  5.8D-07, r^2= 5.9D-01
   Bfn.  Coefficient  Atom+Function         Bfn.  Coefficient  Atom+Function  
  ----- ------------  ---------------      ----- ------------  ---------------
     5      0.740032  1 O  pz                 6      0.494064  2 H  s          
     7     -0.494068  3 H  s          

 Vector    5  Occ=2.000000D+00  E=-4.335026D-01
              MO Center= -1.8D-01, -1.5D-18,  1.7D-07, r^2= 4.2D-01
   Bfn.  Coefficient  Atom+Function         Bfn.  Coefficient  Atom+Function  
  ----- ------------  ---------------      ----- ------------  ---------------
     4      1.000000  1 O  py         

 Vector    6  Occ=0.000000D+00  E= 7.333489D-01
              MO Center=  3.9D-01, -5.2D-19, -1.6D-06, r^2= 8.5D-01
   Bfn.  Coefficient  Atom+Function         Bfn.  Coefficient  Atom+Function  
  ----- ------------  ---------------      ----- ------------  ---------------
     2      1.096797  1 O  s                  3      1.015803  1 O  px         
     6     -0.843666  2 H  s                  7     -0.843672  3 H  s          

 Vector    7  Occ=0.000000D+00  E= 1.018136D+00
              MO Center=  3.2D-01, -1.2D-23,  1.8D-06, r^2= 7.6D-01
   Bfn.  Coefficient  Atom+Function         Bfn.  Coefficient  Atom+Function  
  ----- ------------  ---------------      ----- ------------  ---------------
     6      1.396387  2 H  s                  7     -1.396382  3 H  s          
     5     -0.906443  1 O  pz         


 center of mass
 --------------
 x =  -0.20481236 y =  -0.00000000 z =   0.00000027

 moments of inertia (a.u.)
 ------------------
           0.874641785003          -0.000000000000           0.000001963789
          -0.000000000000           3.811330878451          -0.000000000000
           0.000001963789          -0.000000000000           2.936689093448

  Mulliken analysis of the total density
  --------------------------------------

    Atom       Charge   Shell Charges
 -----------   ------   -------------------------------------------------------
    1 O    8     8.61   2.00  1.92  4.70
    2 H    1     0.69   0.69
    3 H    1     0.69   0.69

       Multipole analysis of the density wrt the origin
       ------------------------------------------------

     L   x y z        total         open         nuclear
     -   - - -        -----         ----         -------
     0   0 0 0     -0.000000      0.000000     10.000000

     1   1 0 0      0.950082      0.000000     -0.919896
     1   0 1 0     -0.000000      0.000000     -0.000000
     1   0 0 1      0.000000      0.000000      0.000002

     2   2 0 0     -3.668832      0.000000      2.709494
     2   1 1 0     -0.000000      0.000000      0.000000
     2   1 0 1     -0.000000      0.000000     -0.000002
     2   0 2 0     -4.401085      0.000000      0.000000
     2   0 1 1     -0.000000      0.000000      0.000000
     2   0 0 2     -4.155787      0.000000      0.867851

 Line search: 
     step= 1.00 grad=-6.6D-01 hess= 2.0D-01 energy=    -74.574734 mode=downhill
 new step= 1.63                   predicted energy=    -74.654956

          --------
          Step   2
          --------


                         Geometry "geometry" -> "geometry"
                         ---------------------------------

 Output coordinates in a.u. (scale by  1.000000000 to convert to a.u.)

  No.       Tag          Charge          X              Y              Z
 ---- ---------------- ---------- -------------- -------------- --------------
    1 O                    8.0000    -0.35136356    -0.00000000     0.00000078
    2 H                    1.0000     0.93428258     0.00000000     0.80398846
    3 H                    1.0000     0.93428498    -0.00000000    -0.80398924

      Atomic Mass 
      ----------- 

      O                 15.994910
      H                  1.007825


 Effective nuclear repulsion energy (a.u.)      11.1736220547

            Nuclear Dipole moment (a.u.) 
            ----------------------------
        X                 Y               Z
 ---------------- ---------------- ----------------
    -0.9423409050    -0.0000000000     0.0000054699

                                 NWChem SCF Module
                                 -----------------


                water TDC calculation number 13 in STO-3G basis set



  ao basis        = "ao basis"
  functions       =     7
  atoms           =     3
  closed shells   =     5
  open shells     =     0
  charge          =   0.00
  wavefunction    = RHF 
  input vectors   = ./water_TDC_13.movecs
  output vectors  = ./water_TDC_13.movecs
  use symmetry    = F
  symmetry adapt  = F


 Summary of "ao basis" -> "ao basis" (cartesian)
 ------------------------------------------------------------------------------
       Tag                 Description            Shells   Functions and Types
 ---------------- ------------------------------  ------  ---------------------
 H                           STO-3G                  1        1   1s
 O                           STO-3G                  3        5   2s1p



 Forming initial guess at       0.3s


 Loading old vectors from job with title :

water TDC calculation number 13 in STO-3G basis set


 Starting SCF solution at       0.3s



 ----------------------------------------------
         Quadratically convergent ROHF

 Convergence threshold     :          1.000E-04
 Maximum no. of iterations :           30
 Final Fock-matrix accuracy:          1.000E-07
 ----------------------------------------------


              iter       energy          gnorm     gmax       time
             ----- ------------------- --------- --------- --------
                 1      -74.7394914474  6.92D-02  4.23D-02      0.3
                 2      -74.7398995551  1.91D-03  1.34D-03      0.3
                 3      -74.7398998728  4.42D-06  3.00D-06      0.3


       Final RHF  results 
       ------------------ 

         Total SCF energy =    -74.739899872785
      One-electron energy =   -125.287379887336
      Two-electron energy =     39.373857959817
 Nuclear repulsion energy =     11.173622054733

        Time for solution =      0.0s


             Final eigenvalues
             -----------------

              1      
    1  -20.2547
    2   -1.4418
    3   -0.5909
    4   -0.5579
    5   -0.4245
    6    0.7325
    7    0.9102

                       ROHF Final Molecular Orbital Analysis
                       -------------------------------------

 Vector    2  Occ=2.000000D+00  E=-1.441798D+00
              MO Center=  1.3D-01, -5.4D-20,  8.2D-07, r^2= 4.8D-01
   Bfn.  Coefficient  Atom+Function         Bfn.  Coefficient  Atom+Function  
  ----- ------------  ---------------      ----- ------------  ---------------
     2      0.735361  1 O  s                  3      0.249574  1 O  px         
     1     -0.217847  1 O  s                  6      0.167144  2 H  s          
     7      0.167143  3 H  s          

 Vector    3  Occ=2.000000D+00  E=-5.909153D-01
              MO Center=  3.9D-02, -1.2D-23, -5.4D-07, r^2= 6.3D-01
   Bfn.  Coefficient  Atom+Function         Bfn.  Coefficient  Atom+Function  
  ----- ------------  ---------------      ----- ------------  ---------------
     5      0.704036  1 O  pz                 6      0.479516  2 H  s          
     7     -0.479516  3 H  s          

 Vector    4  Occ=2.000000D+00  E=-5.578766D-01
              MO Center= -2.9D-01,  2.1D-18,  2.8D-07, r^2= 5.6D-01
   Bfn.  Coefficient  Atom+Function         Bfn.  Coefficient  Atom+Function  
  ----- ------------  ---------------      ----- ------------  ---------------
     2      0.736465  1 O  s                  3     -0.668614  1 O  px         
     6     -0.259440  2 H  s                  7     -0.259443  3 H  s          

 Vector    5  Occ=2.000000D+00  E=-4.245110D-01
              MO Center= -1.9D-01, -1.4D-18,  4.1D-07, r^2= 4.2D-01
   Bfn.  Coefficient  Atom+Function         Bfn.  Coefficient  Atom+Function  
  ----- ------------  ---------------      ----- ------------  ---------------
     4      1.000000  1 O  py         

 Vector    6  Occ=0.000000D+00  E= 7.324520D-01
              MO Center=  4.0D-01, -6.4D-19, -5.3D-06, r^2= 8.7D-01
   Bfn.  Coefficient  Atom+Function         Bfn.  Coefficient  Atom+Function  
  ----- ------------  ---------------      ----- ------------  ---------------
     2      1.052846  1 O  s                  3      0.966497  1 O  px         
     6     -0.837821  2 H  s                  7     -0.837836  3 H  s          

 Vector    7  Occ=0.000000D+00  E= 9.101558D-01
              MO Center=  3.0D-01, -4.0D-23,  5.8D-06, r^2= 8.1D-01
   Bfn.  Coefficient  Atom+Function         Bfn.  Coefficient  Atom+Function  
  ----- ------------  ---------------      ----- ------------  ---------------
     6      1.191515  2 H  s                  7     -1.191500  3 H  s          
     5     -0.929089  1 O  pz         


 center of mass
 --------------
 x =  -0.20748047 y =  -0.00000000 z =   0.00000065

 moments of inertia (a.u.)
 ------------------
           1.302912272732          -0.000000000000           0.000004640310
          -0.000000000000           4.261697326246          -0.000000000000
           0.000004640310          -0.000000000000           2.958785053514

  Mulliken analysis of the total density
  --------------------------------------

    Atom       Charge   Shell Charges
 -----------   ------   -------------------------------------------------------
    1 O    8     8.54   2.00  1.90  4.65
    2 H    1     0.73   0.73
    3 H    1     0.73   0.73

       Multipole analysis of the density wrt the origin
       ------------------------------------------------

     L   x y z        total         open         nuclear
     -   - - -        -----         ----         -------
     0   0 0 0     -0.000000      0.000000     10.000000

     1   1 0 0      0.892686      0.000000     -0.942341
     1   0 1 0     -0.000000      0.000000     -0.000000
     1   0 0 1      0.000000      0.000000      0.000005

     2   2 0 0     -3.740955      0.000000      2.733423
     2   1 1 0     -0.000000      0.000000      0.000000
     2   1 0 1     -0.000000      0.000000     -0.000005
     2   0 2 0     -4.429654      0.000000      0.000000
     2   0 1 1     -0.000000      0.000000      0.000000
     2   0 0 2     -4.034904      0.000000      1.292796

                              NWChem Gradients Module
                              -----------------------


                water TDC calculation number 13 in STO-3G basis set


  wavefunction    =   RHF     



                         RHF ENERGY GRADIENTS

    atom               coordinates                        gradient
                 x          y          z           x          y          z
   1 O      -0.351364  -0.000000   0.000001    0.535766  -0.000000   0.000003
   2 H       0.934283   0.000000   0.803988   -0.267885   0.000000  -0.453042
   3 H       0.934285  -0.000000  -0.803989   -0.267881  -0.000000   0.453039

                 ----------------------------------------
                 |  Time  |  1-e(secs)   |  2-e(secs)   |
                 ----------------------------------------
                 |  CPU   |       0.00   |       0.00   |
                 ----------------------------------------
                 |  WALL  |       0.00   |       0.00   |
                 ----------------------------------------

  Step       Energy      Delta E   Gmax     Grms     Xrms     Xmax   Walltime
  ---- ---------------- -------- -------- -------- -------- -------- --------
@    2     -74.73989987 -6.2D-01  0.53577  0.30570  0.17761  0.37669      0.4
                                                                    

                                 NWChem SCF Module
                                 -----------------


                water TDC calculation number 13 in STO-3G basis set



  ao basis        = "ao basis"
  functions       =     7
  atoms           =     3
  closed shells   =     5
  open shells     =     0
  charge          =   0.00
  wavefunction    = RHF 
  input vectors   = ./water_TDC_13.movecs
  output vectors  = ./water_TDC_13.movecs
  use symmetry    = F
  symmetry adapt  = F


 Summary of "ao basis" -> "ao basis" (cartesian)
 ------------------------------------------------------------------------------
       Tag                 Description            Shells   Functions and Types
 ---------------- ------------------------------  ------  ---------------------
 H                           STO-3G                  1        1   1s
 O                           STO-3G                  3        5   2s1p



 Forming initial guess at       0.4s


 Loading old vectors from job with title :

water TDC calculation number 13 in STO-3G basis set


 Starting SCF solution at       0.4s



 ----------------------------------------------
         Quadratically convergent ROHF

 Convergence threshold     :          1.000E-04
 Maximum no. of iterations :           30
 Final Fock-matrix accuracy:          1.000E-07
 ----------------------------------------------


              iter       energy          gnorm     gmax       time
             ----- ------------------- --------- --------- --------
                 1      -74.8673801836  1.25D-01  9.09D-02      0.3
                 2      -74.8680646030  2.52D-03  1.78D-03      0.3
                 3      -74.8680649919  5.27D-08  4.43D-08      0.3


       Final RHF  results 
       ------------------ 

         Total SCF energy =    -74.868064991900
      One-electron energy =   -123.967457057248
      Two-electron energy =     38.828875079514
 Nuclear repulsion energy =     10.270516985834

        Time for solution =      0.0s


             Final eigenvalues
             -----------------

              1      
    1  -20.2547
    2   -1.3672
    3   -0.5852
    4   -0.5348
    5   -0.4131
    6    0.6931
    7    0.8028

                       ROHF Final Molecular Orbital Analysis
                       -------------------------------------

 Vector    2  Occ=2.000000D+00  E=-1.367176D+00
              MO Center=  8.3D-02,  3.2D-19, -1.7D-06, r^2= 5.1D-01
   Bfn.  Coefficient  Atom+Function         Bfn.  Coefficient  Atom+Function  
  ----- ------------  ---------------      ----- ------------  ---------------
     2      0.774904  1 O  s                  1     -0.223331  1 O  s          
     3      0.204234  1 O  px                 6      0.164765  2 H  s          
     7      0.164766  3 H  s          

 Vector    3  Occ=2.000000D+00  E=-5.851964D-01
              MO Center=  5.5D-02,  1.9D-23,  4.2D-07, r^2= 6.9D-01
   Bfn.  Coefficient  Atom+Function         Bfn.  Coefficient  Atom+Function  
  ----- ------------  ---------------      ----- ------------  ---------------
     5      0.678740  1 O  pz                 6      0.466162  2 H  s          
     7     -0.466164  3 H  s          

 Vector    4  Occ=2.000000D+00  E=-5.347548D-01
              MO Center= -2.5D-01,  1.9D-18, -5.2D-07, r^2= 6.1D-01
   Bfn.  Coefficient  Atom+Function         Bfn.  Coefficient  Atom+Function  
  ----- ------------  ---------------      ----- ------------  ---------------
     3     -0.685085  1 O  px                 2      0.679480  1 O  s          
     6     -0.277272  2 H  s                  7     -0.277268  3 H  s          

 Vector    5  Occ=2.000000D+00  E=-4.130517D-01
              MO Center= -2.0D-01, -1.4D-18, -1.2D-06, r^2= 4.2D-01
   Bfn.  Coefficient  Atom+Function         Bfn.  Coefficient  Atom+Function  
  ----- ------------  ---------------      ----- ------------  ---------------
     4      1.000000  1 O  py         

 Vector    6  Occ=0.000000D+00  E= 6.930668D-01
              MO Center=  3.8D-01, -8.0D-19,  1.4D-05, r^2= 9.1D-01
   Bfn.  Coefficient  Atom+Function         Bfn.  Coefficient  Atom+Function  
  ----- ------------  ---------------      ----- ------------  ---------------
     2      0.948002  1 O  s                  3      0.914509  1 O  px         
     6     -0.801076  2 H  s                  7     -0.801042  3 H  s          

 Vector    7  Occ=0.000000D+00  E= 8.028217D-01
              MO Center=  2.7D-01,  1.2D-22, -1.5D-05, r^2= 8.7D-01
   Bfn.  Coefficient  Atom+Function         Bfn.  Coefficient  Atom+Function  
  ----- ------------  ---------------      ----- ------------  ---------------
     6      1.027087  2 H  s                  7     -1.027119  3 H  s          
     5     -0.924148  1 O  pz         


 center of mass
 --------------
 x =  -0.22977352 y =  -0.00000000 z =  -0.00000188

 moments of inertia (a.u.)
 ------------------
           1.881553159572          -0.000000000000          -0.000010007330
          -0.000000000000           5.028195180047          -0.000000000000
          -0.000010007330          -0.000000000000           3.146642020475

  Mulliken analysis of the total density
  --------------------------------------

    Atom       Charge   Shell Charges
 -----------   ------   -------------------------------------------------------
    1 O    8     8.45   2.00  1.88  4.56
    2 H    1     0.78   0.78
    3 H    1     0.78   0.78

       Multipole analysis of the density wrt the origin
       ------------------------------------------------

     L   x y z        total         open         nuclear
     -   - - -        -----         ----         -------
     0   0 0 0     -0.000000      0.000000     10.000000

     1   1 0 0      0.821265      0.000000     -1.129874
     1   0 1 0     -0.000000      0.000000     -0.000000
     1   0 0 1      0.000000      0.000000     -0.000016

     2   2 0 0     -3.839839      0.000000      2.940194
     2   1 1 0     -0.000000      0.000000      0.000000
     2   1 0 1     -0.000000      0.000000      0.000011
     2   0 2 0     -4.479088      0.000000      0.000000
     2   0 1 1     -0.000000      0.000000      0.000000
     2   0 0 2     -3.912614      0.000000      1.866944

 Line search: 
     step= 1.00 grad=-1.7D-01 hess= 4.0D-02 energy=    -74.868065 mode=downhill
 new step= 2.09                   predicted energy=    -74.915938

          --------
          Step   3
          --------


                         Geometry "geometry" -> "geometry"
                         ---------------------------------

 Output coordinates in a.u. (scale by  1.000000000 to convert to a.u.)

  No.       Tag          Charge          X              Y              Z
 ---- ---------------- ---------- -------------- -------------- --------------
    1 O                    8.0000    -0.40735028    -0.00000000    -0.00000557
    2 H                    1.0000     0.96228056    -0.00000000     1.14290507
    3 H                    1.0000     0.96227372     0.00000000    -1.14289950

      Atomic Mass 
      ----------- 

      O                 15.994910
      H                  1.007825


 Effective nuclear repulsion energy (a.u.)       9.4068691733

            Nuclear Dipole moment (a.u.) 
            ----------------------------
        X                 Y               Z
 ---------------- ---------------- ----------------
    -1.3342479674    -0.0000000000    -0.0000390035

                                 NWChem SCF Module
                                 -----------------


                water TDC calculation number 13 in STO-3G basis set



  ao basis        = "ao basis"
  functions       =     7
  atoms           =     3
  closed shells   =     5
  open shells     =     0
  charge          =   0.00
  wavefunction    = RHF 
  input vectors   = ./water_TDC_13.movecs
  output vectors  = ./water_TDC_13.movecs
  use symmetry    = F
  symmetry adapt  = F


 Summary of "ao basis" -> "ao basis" (cartesian)
 ------------------------------------------------------------------------------
       Tag                 Description            Shells   Functions and Types
 ---------------- ------------------------------  ------  ---------------------
 H                           STO-3G                  1        1   1s
 O                           STO-3G                  3        5   2s1p



 Forming initial guess at       0.4s


 Loading old vectors from job with title :

water TDC calculation number 13 in STO-3G basis set


 Starting SCF solution at       0.4s



 ----------------------------------------------
         Quadratically convergent ROHF

 Convergence threshold     :          1.000E-04
 Maximum no. of iterations :           30
 Final Fock-matrix accuracy:          1.000E-07
 ----------------------------------------------


              iter       energy          gnorm     gmax       time
             ----- ------------------- --------- --------- --------
                 1      -74.9361389169  1.28D-01  8.75D-02      0.3
                 2      -74.9368444035  3.18D-03  1.88D-03      0.3
                 3      -74.9368455163  2.31D-07  2.09D-07      0.4


       Final RHF  results 
       ------------------ 

         Total SCF energy =    -74.936845516252
      One-electron energy =   -122.592328992819
      Two-electron energy =     38.248614303275
 Nuclear repulsion energy =      9.406869173291

        Time for solution =      0.0s


             Final eigenvalues
             -----------------

              1      
    1  -20.2595
    2   -1.3033
    3   -0.5707
    4   -0.5100
    5   -0.4040
    6    0.6330
    7    0.7077

                       ROHF Final Molecular Orbital Analysis
                       -------------------------------------

 Vector    2  Occ=2.000000D+00  E=-1.303323D+00
              MO Center=  2.7D-02,  7.1D-19, -5.1D-06, r^2= 5.3D-01
   Bfn.  Coefficient  Atom+Function         Bfn.  Coefficient  Atom+Function  
  ----- ------------  ---------------      ----- ------------  ---------------
     2      0.815228  1 O  s                  1     -0.228864  1 O  s          
     3      0.159755  1 O  px                 6      0.159881  2 H  s          
     7      0.159885  3 H  s          

 Vector    3  Occ=2.000000D+00  E=-5.707423D-01
              MO Center=  7.0D-02,  5.4D-23, -8.5D-08, r^2= 7.5D-01
   Bfn.  Coefficient  Atom+Function         Bfn.  Coefficient  Atom+Function  
  ----- ------------  ---------------      ----- ------------  ---------------
     5      0.658116  1 O  pz                 6      0.458143  2 H  s          
     7     -0.458147  3 H  s          

 Vector    4  Occ=2.000000D+00  E=-5.099828D-01
              MO Center= -2.2D-01,  1.6D-18,  9.8D-07, r^2= 6.7D-01
   Bfn.  Coefficient  Atom+Function         Bfn.  Coefficient  Atom+Function  
  ----- ------------  ---------------      ----- ------------  ---------------
     3      0.696729  1 O  px                 2     -0.619130  1 O  s          
     6      0.299208  2 H  s                  7      0.299194  3 H  s          

 Vector    5  Occ=2.000000D+00  E=-4.039561D-01
              MO Center= -2.2D-01, -1.3D-18, -2.9D-06, r^2= 4.2D-01
   Bfn.  Coefficient  Atom+Function         Bfn.  Coefficient  Atom+Function  
  ----- ------------  ---------------      ----- ------------  ---------------
     4      1.000000  1 O  py         

 Vector    6  Occ=0.000000D+00  E= 6.329813D-01
              MO Center=  3.6D-01, -9.6D-19,  5.7D-05, r^2= 9.5D-01
   Bfn.  Coefficient  Atom+Function         Bfn.  Coefficient  Atom+Function  
  ----- ------------  ---------------      ----- ------------  ---------------
     3      0.865003  1 O  px                 2      0.836566  1 O  s          
     6     -0.760845  2 H  s                  7     -0.760737  3 H  s          

 Vector    7  Occ=0.000000D+00  E= 7.076625D-01
              MO Center=  2.5D-01,  5.1D-22, -5.9D-05, r^2= 9.4D-01
   Bfn.  Coefficient  Atom+Function         Bfn.  Coefficient  Atom+Function  
  ----- ------------  ---------------      ----- ------------  ---------------
     5      0.912986  1 O  pz                 6     -0.902881  2 H  s          
     7      0.902986  3 H  s          


 center of mass
 --------------
 x =  -0.25406857 y =  -0.00000000 z =  -0.00000464

 moments of inertia (a.u.)
 ------------------
           2.632893688359           0.000000000000          -0.000028361633
           0.000000000000           5.990846525890           0.000000000000
          -0.000028361633           0.000000000000           3.357952837531

  Mulliken analysis of the total density
  --------------------------------------

    Atom       Charge   Shell Charges
 -----------   ------   -------------------------------------------------------
    1 O    8     8.36   2.00  1.88  4.48
    2 H    1     0.82   0.82
    3 H    1     0.82   0.82

       Multipole analysis of the density wrt the origin
       ------------------------------------------------

     L   x y z        total         open         nuclear
     -   - - -        -----         ----         -------
     0   0 0 0      0.000000      0.000000     10.000000

     1   1 0 0      0.748551      0.000000     -1.334248
     1   0 1 0     -0.000000      0.000000     -0.000000
     1   0 0 1     -0.000001      0.000000     -0.000039

     2   2 0 0     -3.936105      0.000000      3.179429
     2   1 1 0     -0.000000      0.000000     -0.000000
     2   1 0 1     -0.000000      0.000000      0.000031
     2   0 2 0     -4.531639      0.000000      0.000000
     2   0 1 1     -0.000000      0.000000     -0.000000
     2   0 0 2     -3.774249      0.000000      2.612451

                              NWChem Gradients Module
                              -----------------------


                water TDC calculation number 13 in STO-3G basis set


  wavefunction    =   RHF     



                         RHF ENERGY GRADIENTS

    atom               coordinates                        gradient
                 x          y          z           x          y          z
   1 O      -0.407350  -0.000000  -0.000006    0.029054  -0.000000  -0.000009
   2 H       0.962281  -0.000000   1.142905   -0.014522   0.000000  -0.110707
   3 H       0.962274   0.000000  -1.142899   -0.014532  -0.000000   0.110716

                 ----------------------------------------
                 |  Time  |  1-e(secs)   |  2-e(secs)   |
                 ----------------------------------------
                 |  CPU   |       0.00   |       0.00   |
                 ----------------------------------------
                 |  WALL  |       0.00   |       0.00   |
                 ----------------------------------------

  Step       Energy      Delta E   Gmax     Grms     Xrms     Xmax   Walltime
  ---- ---------------- -------- -------- -------- -------- -------- --------
@    3     -74.93684552 -2.0D-01  0.11072  0.05352  0.16139  0.33892      0.5
                                                                    

                                 NWChem SCF Module
                                 -----------------


                water TDC calculation number 13 in STO-3G basis set



  ao basis        = "ao basis"
  functions       =     7
  atoms           =     3
  closed shells   =     5
  open shells     =     0
  charge          =   0.00
  wavefunction    = RHF 
  input vectors   = ./water_TDC_13.movecs
  output vectors  = ./water_TDC_13.movecs
  use symmetry    = F
  symmetry adapt  = F


 Summary of "ao basis" -> "ao basis" (cartesian)
 ------------------------------------------------------------------------------
       Tag                 Description            Shells   Functions and Types
 ---------------- ------------------------------  ------  ---------------------
 H                           STO-3G                  1        1   1s
 O                           STO-3G                  3        5   2s1p



 Forming initial guess at       0.5s


 Loading old vectors from job with title :

water TDC calculation number 13 in STO-3G basis set


 Starting SCF solution at       0.5s



 ----------------------------------------------
         Quadratically convergent ROHF

 Convergence threshold     :          1.000E-04
 Maximum no. of iterations :           30
 Final Fock-matrix accuracy:          1.000E-07
 ----------------------------------------------


              iter       energy          gnorm     gmax       time
             ----- ------------------- --------- --------- --------
                 1      -74.9571711752  5.35D-02  3.56D-02      0.4
                 2      -74.9573633282  2.68D-03  2.24D-03      0.4
                 3      -74.9573640130  2.26D-07  1.60D-07      0.4


       Final RHF  results 
       ------------------ 

         Total SCF energy =    -74.957364012998
      One-electron energy =   -121.980390784247
      Two-electron energy =     37.992449857646
 Nuclear repulsion energy =      9.030576913603

        Time for solution =      0.0s


             Final eigenvalues
             -----------------

              1      
    1  -20.2612
    2   -1.2751
    3   -0.5724
    4   -0.4895
    5   -0.3996
    6    0.6018
    7    0.6752

                       ROHF Final Molecular Orbital Analysis
                       -------------------------------------

 Vector    2  Occ=2.000000D+00  E=-1.275089D+00
              MO Center=  9.4D-03,  9.0D-19,  1.3D-06, r^2= 5.4D-01
   Bfn.  Coefficient  Atom+Function         Bfn.  Coefficient  Atom+Function  
  ----- ------------  ---------------      ----- ------------  ---------------
     2      0.835616  1 O  s                  1     -0.231949  1 O  s          
     6      0.156088  2 H  s                  7      0.156087  3 H  s          

 Vector    3  Occ=2.000000D+00  E=-5.724160D-01
              MO Center=  9.1D-02, -1.1D-23,  1.0D-07, r^2= 8.0D-01
   Bfn.  Coefficient  Atom+Function         Bfn.  Coefficient  Atom+Function  
  ----- ------------  ---------------      ----- ------------  ---------------
     5      0.639073  1 O  pz                 6      0.454720  2 H  s          
     7     -0.454719  3 H  s          

 Vector    4  Occ=2.000000D+00  E=-4.895302D-01
              MO Center= -1.9D-01,  1.4D-18, -2.0D-07, r^2= 6.9D-01
   Bfn.  Coefficient  Atom+Function         Bfn.  Coefficient  Atom+Function  
  ----- ------------  ---------------      ----- ------------  ---------------
     3      0.716090  1 O  px                 2     -0.578435  1 O  s          
     6      0.304660  2 H  s                  7      0.304663  3 H  s          

 Vector    5  Occ=2.000000D+00  E=-3.995565D-01
              MO Center= -2.1D-01, -1.3D-18,  8.0D-07, r^2= 4.2D-01
   Bfn.  Coefficient  Atom+Function         Bfn.  Coefficient  Atom+Function  
  ----- ------------  ---------------      ----- ------------  ---------------
     4      1.000000  1 O  py         

 Vector    6  Occ=0.000000D+00  E= 6.018380D-01
              MO Center=  3.6D-01, -1.1D-18, -1.3D-05, r^2= 1.0D+00
   Bfn.  Coefficient  Atom+Function         Bfn.  Coefficient  Atom+Function  
  ----- ------------  ---------------      ----- ------------  ---------------
     3      0.825619  1 O  px                 2      0.801374  1 O  s          
     6     -0.753295  2 H  s                  7     -0.753317  3 H  s          

 Vector    7  Occ=0.000000D+00  E= 6.751904D-01
              MO Center=  2.3D-01, -1.2D-22,  1.4D-05, r^2= 9.9D-01
   Bfn.  Coefficient  Atom+Function         Bfn.  Coefficient  Atom+Function  
  ----- ------------  ---------------      ----- ------------  ---------------
     5      0.922918  1 O  pz                 6     -0.845445  2 H  s          
     7      0.845423  3 H  s          


 center of mass
 --------------
 x =  -0.23853616 y =  -0.00000000 z =   0.00000126

 moments of inertia (a.u.)
 ------------------
           3.285922274134           0.000000000000           0.000006358651
           0.000000000000           6.507987402509           0.000000000000
           0.000006358651           0.000000000000           3.222065128375

  Mulliken analysis of the total density
  --------------------------------------

    Atom       Charge   Shell Charges
 -----------   ------   -------------------------------------------------------
    1 O    8     8.33   2.00  1.87  4.46
    2 H    1     0.84   0.84
    3 H    1     0.84   0.84

       Multipole analysis of the density wrt the origin
       ------------------------------------------------

     L   x y z        total         open         nuclear
     -   - - -        -----         ----         -------
     0   0 0 0     -0.000000      0.000000     10.000000

     1   1 0 0      0.707017      0.000000     -1.203587
     1   0 1 0     -0.000000      0.000000     -0.000000
     1   0 0 1      0.000000      0.000000      0.000011

     2   2 0 0     -3.991490      0.000000      3.024810
     2   1 1 0     -0.000000      0.000000      0.000000
     2   1 0 1      0.000000      0.000000     -0.000007
     2   0 2 0     -4.553420      0.000000      0.000000
     2   0 1 1     -0.000000      0.000000     -0.000000
     2   0 0 2     -3.620087      0.000000      3.260410

 Line search: 
     step= 1.00 grad=-2.9D-02 hess= 8.3D-03 energy=    -74.957364 mode=downhill
 new step= 1.73                   predicted energy=    -74.961842

          --------
          Step   4
          --------


                         Geometry "geometry" -> "geometry"
                         ---------------------------------

 Output coordinates in a.u. (scale by  1.000000000 to convert to a.u.)

  No.       Tag          Charge          X              Y              Z
 ---- ---------------- ---------- -------------- -------------- --------------
    1 O                    8.0000    -0.37498665    -0.00000000     0.00000671
    2 H                    1.0000     0.94609220    -0.00000000     1.37504678
    3 H                    1.0000     0.94609845     0.00000000    -1.37505349

      Atomic Mass 
      ----------- 

      O                 15.994910
      H                  1.007825


 Effective nuclear repulsion energy (a.u.)       8.7544898484

            Nuclear Dipole moment (a.u.) 
            ----------------------------
        X                 Y               Z
 ---------------- ---------------- ----------------
    -1.1077025339    -0.0000000000     0.0000469403

                                 NWChem SCF Module
                                 -----------------


                water TDC calculation number 13 in STO-3G basis set



  ao basis        = "ao basis"
  functions       =     7
  atoms           =     3
  closed shells   =     5
  open shells     =     0
  charge          =   0.00
  wavefunction    = RHF 
  input vectors   = ./water_TDC_13.movecs
  output vectors  = ./water_TDC_13.movecs
  use symmetry    = F
  symmetry adapt  = F


 Summary of "ao basis" -> "ao basis" (cartesian)
 ------------------------------------------------------------------------------
       Tag                 Description            Shells   Functions and Types
 ---------------- ------------------------------  ------  ---------------------
 H                           STO-3G                  1        1   1s
 O                           STO-3G                  3        5   2s1p



 Forming initial guess at       0.5s


 Loading old vectors from job with title :

water TDC calculation number 13 in STO-3G basis set


 Starting SCF solution at       0.5s



 ----------------------------------------------
         Quadratically convergent ROHF

 Convergence threshold     :          1.000E-04
 Maximum no. of iterations :           30
 Final Fock-matrix accuracy:          1.000E-07
 ----------------------------------------------


              iter       energy          gnorm     gmax       time
             ----- ------------------- --------- --------- --------
                 1      -74.9625841299  3.99D-02  2.97D-02      0.4
                 2      -74.9626610673  2.45D-04  2.19D-04      0.4
                 3      -74.9626610729  5.29D-06  5.06D-06      0.5


       Final RHF  results 
       ------------------ 

         Total SCF energy =    -74.962661072913
      One-electron energy =   -121.518063446901
      Two-electron energy =     37.800912525582
 Nuclear repulsion energy =      8.754489848406

        Time for solution =      0.0s


             Final eigenvalues
             -----------------

              1      
    1  -20.2617
    2   -1.2558
    3   -0.5699
    4   -0.4746
    5   -0.3961
    6    0.5727
    7    0.6528

                       ROHF Final Molecular Orbital Analysis
                       -------------------------------------

 Vector    2  Occ=2.000000D+00  E=-1.255843D+00
              MO Center= -2.5D-03,  1.0D-18,  6.4D-06, r^2= 5.4D-01
   Bfn.  Coefficient  Atom+Function         Bfn.  Coefficient  Atom+Function  
  ----- ------------  ---------------      ----- ------------  ---------------
     2      0.849558  1 O  s                  1     -0.233992  1 O  s          
     6      0.153344  2 H  s                  7      0.153340  3 H  s          

 Vector    3  Occ=2.000000D+00  E=-5.699001D-01
              MO Center=  1.0D-01, -5.5D-23,  5.8D-07, r^2= 8.4D-01
   Bfn.  Coefficient  Atom+Function         Bfn.  Coefficient  Atom+Function  
  ----- ------------  ---------------      ----- ------------  ---------------
     5      0.627752  1 O  pz                 6      0.453156  2 H  s          
     7     -0.453152  3 H  s          

 Vector    4  Occ=2.000000D+00  E=-4.746040D-01
              MO Center= -1.8D-01,  1.3D-18, -2.0D-06, r^2= 7.0D-01
   Bfn.  Coefficient  Atom+Function         Bfn.  Coefficient  Atom+Function  
  ----- ------------  ---------------      ----- ------------  ---------------
     3      0.727599  1 O  px                 2     -0.550297  1 O  s          
     6      0.309951  2 H  s                  7      0.309963  3 H  s          

 Vector    5  Occ=2.000000D+00  E=-3.961150D-01
              MO Center= -2.0D-01, -1.2D-18,  3.5D-06, r^2= 4.2D-01
   Bfn.  Coefficient  Atom+Function         Bfn.  Coefficient  Atom+Function  
  ----- ------------  ---------------      ----- ------------  ---------------
     4      1.000000  1 O  py         

 Vector    6  Occ=0.000000D+00  E= 5.727013D-01
              MO Center=  3.6D-01, -1.1D-18, -6.3D-05, r^2= 1.0D+00
   Bfn.  Coefficient  Atom+Function         Bfn.  Coefficient  Atom+Function  
  ----- ------------  ---------------      ----- ------------  ---------------
     3      0.798340  1 O  px                 2      0.770440  1 O  s          
     6     -0.744297  2 H  s                  7     -0.744390  3 H  s          

 Vector    7  Occ=0.000000D+00  E= 6.527823D-01
              MO Center=  2.2D-01, -5.8D-22,  6.6D-05, r^2= 1.0D+00
   Bfn.  Coefficient  Atom+Function         Bfn.  Coefficient  Atom+Function  
  ----- ------------  ---------------      ----- ------------  ---------------
     5      0.926212  1 O  pz                 6     -0.810266  2 H  s          
     7      0.810167  3 H  s          


 center of mass
 --------------
 x =  -0.22713789 y =  -0.00000000 z =   0.00000558

 moments of inertia (a.u.)
 ------------------
           3.811116189631          -0.000000000000           0.000032456469
          -0.000000000000           6.935247208752           0.000000000000
           0.000032456469           0.000000000000           3.124131019121

  Mulliken analysis of the total density
  --------------------------------------

    Atom       Charge   Shell Charges
 -----------   ------   -------------------------------------------------------
    1 O    8     8.31   2.00  1.87  4.44
    2 H    1     0.85   0.85
    3 H    1     0.85   0.85

       Multipole analysis of the density wrt the origin
       ------------------------------------------------

     L   x y z        total         open         nuclear
     -   - - -        -----         ----         -------
     0   0 0 0     -0.000000      0.000000     10.000000

     1   1 0 0      0.677905      0.000000     -1.107703
     1   0 1 0     -0.000000      0.000000     -0.000000
     1   0 0 1      0.000001      0.000000      0.000047

     2   2 0 0     -4.029470      0.000000      2.915113
     2   1 1 0     -0.000000      0.000000      0.000000
     2   1 0 1      0.000000      0.000000     -0.000035
     2   0 2 0     -4.569754      0.000000      0.000000
     2   0 1 1     -0.000000      0.000000     -0.000000
     2   0 0 2     -3.504852      0.000000      3.781526

                              NWChem Gradients Module
                              -----------------------


                water TDC calculation number 13 in STO-3G basis set


  wavefunction    =   RHF     



                         RHF ENERGY GRADIENTS

    atom               coordinates                        gradient
                 x          y          z           x          y          z
   1 O      -0.374987  -0.000000   0.000007   -0.052799  -0.000000   0.000009
   2 H       0.946092  -0.000000   1.375047    0.026396   0.000000  -0.002156
   3 H       0.946098   0.000000  -1.375053    0.026403  -0.000000   0.002147

                 ----------------------------------------
                 |  Time  |  1-e(secs)   |  2-e(secs)   |
                 ----------------------------------------
                 |  CPU   |       0.00   |       0.00   |
                 ----------------------------------------
                 |  WALL  |       0.00   |       0.00   |
                 ----------------------------------------

  Step       Energy      Delta E   Gmax     Grms     Xrms     Xmax   Walltime
  ---- ---------------- -------- -------- -------- -------- -------- --------
@    4     -74.96266107 -2.6D-02  0.05280  0.02158  0.11023  0.23215      0.6
                                                                    

                                 NWChem SCF Module
                                 -----------------


                water TDC calculation number 13 in STO-3G basis set



  ao basis        = "ao basis"
  functions       =     7
  atoms           =     3
  closed shells   =     5
  open shells     =     0
  charge          =   0.00
  wavefunction    = RHF 
  input vectors   = ./water_TDC_13.movecs
  output vectors  = ./water_TDC_13.movecs
  use symmetry    = F
  symmetry adapt  = F


 Summary of "ao basis" -> "ao basis" (cartesian)
 ------------------------------------------------------------------------------
       Tag                 Description            Shells   Functions and Types
 ---------------- ------------------------------  ------  ---------------------
 H                           STO-3G                  1        1   1s
 O                           STO-3G                  3        5   2s1p



 Forming initial guess at       0.6s


 Loading old vectors from job with title :

water TDC calculation number 13 in STO-3G basis set


 Starting SCF solution at       0.6s



 ----------------------------------------------
         Quadratically convergent ROHF

 Convergence threshold     :          1.000E-04
[...]
 4fd in         5864103894387
 grid_file: read    220 grid_pts in record     2 of      2.
  grid_file read: nqpts,nctr,n_in_rec,next_value                  219                    3                  220                    2
 4fd in         5864103894387
 grid_file: read    148 grid_pts in record     3 of      3.
  grid_file read: nqpts,nctr,n_in_rec,next_value                  147                    3                  148                    2
 4fd in         5864103894387
 grid_file: read     38 grid_pts in record     2 of      2.
  grid_file read: nqpts,nctr,n_in_rec,next_value                   37                    3                   38                    2

     ------------------------------------------
      Total Density - Becke Population Analysis
     ------------------------------------------

    Atom         Charge   
 -----------   -------- 

 *** xcnewfock: fock matrix after add
 *** xcnewfock: fock matrix after add
 *** xcnewfock: fock matrix after add

 XC quadr. integrated density :      -0.000000 npts:    30968 nctrs:        3

 XC matrix at end fock_xc:
 g_xc dotproduct   6.2473781053362957E-004
  matrix no.                     1   6.2473781053362957E-004
  ndim                     3  dims                     1                    7                    7
  alo                     1                    1                    1
  ahi                     1                    7                    7

 global array: nfockxc:3dxc[1:1,1:7,1:7],  handle: -989 
nfockxc:3dxc(1,1,1) = 0.000000
nfockxc:3dxc(1,2,1) = -0.000000
nfockxc:3dxc(1,3,1) = 0.000000
nfockxc:3dxc(1,4,1) = 0.001909
nfockxc:3dxc(1,5,1) = -0.000000
nfockxc:3dxc(1,6,1) = 0.000000
nfockxc:3dxc(1,7,1) = 0.000000
nfockxc:3dxc(1,1,2) = -0.000000
nfockxc:3dxc(1,2,2) = 0.000000
nfockxc:3dxc(1,3,2) = 0.000000
nfockxc:3dxc(1,4,2) = 0.014702
nfockxc:3dxc(1,5,2) = 0.000000
nfockxc:3dxc(1,6,2) = 0.000000
nfockxc:3dxc(1,7,2) = 0.000000
nfockxc:3dxc(1,1,3) = 0.000000
nfockxc:3dxc(1,2,3) = 0.000000
nfockxc:3dxc(1,3,3) = 0.000000
nfockxc:3dxc(1,4,3) = 0.004898
nfockxc:3dxc(1,5,3) = 0.000000
nfockxc:3dxc(1,6,3) = 0.000000
nfockxc:3dxc(1,7,3) = 0.000000
nfockxc:3dxc(1,1,4) = 0.001909
nfockxc:3dxc(1,2,4) = 0.014702
nfockxc:3dxc(1,3,4) = 0.004898
nfockxc:3dxc(1,4,4) = -0.000000
nfockxc:3dxc(1,5,4) = -0.000000
nfockxc:3dxc(1,6,4) = 0.005856
nfockxc:3dxc(1,7,4) = 0.005856
nfockxc:3dxc(1,1,5) = 0.000000
nfockxc:3dxc(1,2,5) = -0.000000
nfockxc:3dxc(1,3,5) = 0.000000
nfockxc:3dxc(1,4,5) = -0.000000
nfockxc:3dxc(1,5,5) = -0.000000
nfockxc:3dxc(1,6,5) = 0.000000
nfockxc:3dxc(1,7,5) = -0.000000
nfockxc:3dxc(1,1,6) = 0.000000
nfockxc:3dxc(1,2,6) = 0.000000
nfockxc:3dxc(1,3,6) = 0.000000
nfockxc:3dxc(1,4,6) = 0.005856
nfockxc:3dxc(1,5,6) = 0.000000
nfockxc:3dxc(1,6,6) = 0.000000
nfockxc:3dxc(1,7,6) = 0.000000
nfockxc:3dxc(1,1,7) = 0.000000
nfockxc:3dxc(1,2,7) = 0.000000
nfockxc:3dxc(1,3,7) = 0.000000
nfockxc:3dxc(1,4,7) = 0.005856
nfockxc:3dxc(1,5,7) = -0.000000
nfockxc:3dxc(1,6,7) = 0.000000
nfockxc:3dxc(1,7,7) = 0.000000
 *** xcnewfock: fock matrix after add

 global array: Work[1:1,1:7,1:7],  handle: -990 
Work(1,1,1) = 0.000000
Work(1,2,1) = -0.000000
Work(1,3,1) = -0.000000
Work(1,4,1) = -0.018734
Work(1,5,1) = -0.000000
Work(1,6,1) = 0.000000
Work(1,7,1) = 0.000000
Work(1,1,2) = -0.000000
Work(1,2,2) = 0.000000
Work(1,3,2) = 0.000000
Work(1,4,2) = 0.057459
Work(1,5,2) = 0.000000
Work(1,6,2) = 0.000000
Work(1,7,2) = 0.000000
Work(1,1,3) = -0.000000
Work(1,2,3) = 0.000000
Work(1,3,3) = -0.000000
Work(1,4,3) = 0.037153
Work(1,5,3) = 0.000000
Work(1,6,3) = -0.000000
Work(1,7,3) = -0.000000
Work(1,1,4) = -0.005599
Work(1,2,4) = 0.008089
Work(1,3,4) = -0.142977
Work(1,4,4) = -0.000000
Work(1,5,4) = 0.000000
Work(1,6,4) = 0.002135
Work(1,7,4) = -0.003795
Work(1,1,5) = -0.000000
Work(1,2,5) = -0.000000
Work(1,3,5) = -0.000000
Work(1,4,5) = -0.000000
Work(1,5,5) = -0.000000
Work(1,6,5) = -0.000000
Work(1,7,5) = -0.000000
Work(1,1,6) = 0.000000
Work(1,2,6) = 0.000000
Work(1,3,6) = -0.000000
Work(1,4,6) = -0.062746
Work(1,5,6) = -0.000000
Work(1,6,6) = 0.000000
Work(1,7,6) = 0.000000
Work(1,1,7) = 0.000000
Work(1,2,7) = 0.000000
Work(1,3,7) = -0.000000
Work(1,4,7) = -0.068676
Work(1,5,7) = 0.000000
Work(1,6,7) = 0.000000
Work(1,7,7) = 0.000000

 global array: Work[1:1,1:7,1:7],  handle: -990 

 -- patch: Work[1:1,1:7,1]

            1           2           3           4           5           6  
       ----------- ----------- ----------- ----------- ----------- -----------
   1       0.00000     0.00000     0.00000    -0.00657    -0.00000     0.00000

            7  
       -----------
   1       0.00000

 -- patch: Work[1:1,1:7,2]

            1           2           3           4           5           6  
       ----------- ----------- ----------- ----------- ----------- -----------
   1      -0.00000     0.00000     0.00000     0.02468     0.00000     0.00000

            7  
       -----------
   1       0.00000

 -- patch: Work[1:1,1:7,3]

            1           2           3           4           5           6  
       ----------- -------- *** xcnewfock: fock matrix after add
 *** xcnewfock: fock matrix after add
 *** xcnewfock: fock matrix after add
 *** xcnewfock: fock matrix after add
 *** xcnewfock: fock matrix after add
 *** xcnewfock: fock matrix after add
 *** xcnewfock: fock matrix after add
 *** xcnewfock: fock matrix after add
 *** xcnewfock: fock matrix after add
 *** xcnewfock: fock matrix after add
 *** xcnewfock: fock matrix after add
 *** xcnewfock: fock matrix after add
 *** xcnewfock: fock matrix after add
 *** xcnewfock: fock matrix after add
 *** xcnewfock: fock matrix after add
 *** xcnewfock: fock matrix after add
--- ----------- ----------- ----------- -----------
   1      -0.00000    -0.00000     0.00000     0.09006     0.00000     0.00000

            7  
       -----------
   1       0.00000

 -- patch: Work[1:1,1:7,4]

            1           2           3           4           5           6  
       ----------- ----------- ----------- ----------- ----------- -----------
   1       0.00657    -0.02468    -0.09006     0.00000     0.00000     0.03244

            7  
       -----------
   1       0.03244

 -- patch: Work[1:1,1:7,5]

            1           2           3           4           5           6  
       ----------- ----------- ----------- ----------- ----------- -----------
   1       0.00000    -0.00000    -0.00000    -0.00000     0.00000     0.00000

            7  
       -----------
   1      -0.00000

 -- patch: Work[1:1,1:7,6]

            1           2           3           4           5           6  
       ----------- ----------- ----------- ----------- ----------- -----------
   1       0.00000     0.00000    -0.00000    -0.03244    -0.00000     0.00000

            7  
       -----------
   1       0.00000

 -- patch: Work[1:1,1:7,7]

            1           2           3           4           5           6  
       ----------- ----------- ----------- ----------- ----------- -----------
   1       0.00000     0.00000    -0.00000    -0.03244     0.00000     0.00000

            7  
       -----------
   1       0.00000

 global array: Work product[1:1,1:7,1:7],  handle: -993 

 -- patch: Work product[1:1,1:7,1]

            1           2           3           4           5           6  
       ----------- ----------- ----------- ----------- ----------- -----------
   1      -0.00000    -0.00000    -0.00000     0.01709     0.00000    -0.00000

            7  
       -----------
   1      -0.00000

 -- patch: Work product[1:1,1:7,2]

            1           2           3           4           5           6  
       ----------- ----------- ----------- ----------- ----------- -----------
   1      -0.00000    -0.00000     0.00000     0.07174     0.00000    -0.00000

            7  
       -----------
   1      -0.00000

 -- patch: Work product[1:1,1:7,3]

            1           2           3           4           5           6  
       ----------- ----------- ----------- ----------- ----------- -----------
   1      -0.00000    -0.00000     0.00000     0.02391     0.00000     0.00000

            7  
       -----------
   1       0.00000

 -- patch: Work product[1:1,1:7,4]

            1           2           3           4           5           6  
       ----------- ----------- ----------- ----------- ----------- -----------
   1       0.03023     0.02237    -0.15622     0.00000     0.00000     0.08771

            7  
       -----------
   1       0.08771

 -- patch: Work product[1:1,1:7,5]

            1           2           3           4           5           6  
       ----------- ----------- ----------- ----------- ----------- -----------
   1       0.00000     0.00000    -0.00000    -0.00000     0.00000     0.00000

            7  
       -----------
   1      -0.00000

 -- patch: Work product[1:1,1:7,6]

            1           2           3           4           5           6  
       ----------- ----------- ----------- ----------- ----------- -----------
   1      -0.00000    -0.00000     0.00000     0.02283     0.00000    -0.00000

            7  
       -----------
   1      -0.00000

 -- patch: Work product[1:1,1:7,7]

            1           2           3           4           5           6  
       ----------- ----------- ----------- ----------- ----------- -----------
   1      -0.00000    -0.00000     0.00000     0.02283    -0.00000    -0.00000

            7  
       -----------
   1      -0.00000

 A+B
-------------------------

              1
    1   0.41122
-------------------------

              Contract       0.0 CPU seconds       0.0 Wall seconds
  Memleft= 421227156 doubles
             Transform       0.0 CPU seconds       0.0 Wall seconds
  Memleft= 421227156 doubles

Vector    1
 Spin  Occ  Vir     X+Y       A+B
    1    1    6   0.00000  -0.00000
    1    1    7   0.00000   0.00000
    1    2    6   0.00000   0.00000
    1    2    7   0.00000   0.00000
    1    3    6   0.00000   0.00000
    1    3    7   0.00000   0.00000
    1    4    6   0.00000   0.00000
    1    4    7   0.00000  -0.00000
    1    5    6   1.00000   0.41122
    1    5    7   0.00000   0.00000
               Epsilon       0.0 CPU seconds       0.0 Wall seconds
  Memleft= 421227156 doubles

 A+B
-------------------------

              1
    1   0.41122
-------------------------

              Subspace       0.0 CPU seconds       0.0 Wall seconds
  Memleft= 421227164 doubles

 Eigenvalues
-------------------------

              1
    1   0.41122
-------------------------


 Eigenvectors
-------------------------

              1
    1   1.00000
-------------------------

                Diagon       0.0 CPU seconds       0.0 Wall seconds
  Memleft= 421227164 doubles

 A+B
-------------------------

              1
    1   0.41122
-------------------------


 A+B
-------------------------

              1
    1   0.41122
-------------------------


 A+B
-------------------------

              1
    1   0.41122
-------------------------


 A+B
-------------------------

              1
    1   0.41122
-------------------------


 A+B
-------------------------

              1
    1   0.41122
-------------------------


 A+B
-------------------------

              1
    1   0.41122
-------------------------


 A+B
-------------------------

              1
    1   0.41122
-------------------------


 A+B
-------------------------

              1
    1   0.41122
-------------------------


 A+B
-------------------------

              1
    1   0.41122
-------------------------


 A+B
-------------------------

              1
    1   0.41122
-------------------------


 A+B
-------------------------

              1
    1   0.41122
-------------------------


 A+B
-------------------------

              1
    1   0.41122
-------------------------


 A+B
-------------------------

              1
    1   0.41122
-------------------------


 A+B
-------------------------

              1
    1   0.41122
-------------------------


 A+B
-------------------------

              1
    1   0.41122
-------------------------


 A+B
-------------------------

              1
    1   0.41122
-------------------------


 A+B
-------------------------

              1
    1   0.41122
-------------------------


 A+B
-------------------------

              1
    1   0.41122
-------------------------

  Norm of residuals
    0.00000000

 global array: residual vectors 1[1:10,1:1],  handle: -995 

            1  
       -----------
   1      -0.00000
   2       0.00000
   3       0.00000
   4       0.00000
   5       0.00000
   6       0.00000
   7       0.00000
   8      -0.00000
   9       0.00000
  10       0.00000
              Residual       0.0 CPU seconds       0.0 Wall seconds
  Memleft= 421227164 doubles
    1      1       1     0.12E-08   0.10+100        0.0
  ----  ------  ------  ---------  ---------  --------- 
  Convergence criterion met

  Ground state a         -75.295804348691 a.u.

  ----------------------------------------------------------------------------
  Root   1 singlet a              0.411221804 a.u.               11.1899 eV 

 global array: Transition density[1:7,1:7],  handle: -992 

            1           2           3           4           5           6  
       ----------- ----------- ----------- ----------- ----------- -----------
   1      -0.00000     0.00000    -0.00000    -0.12084    -0.00000    -0.00000
   2       0.00000    -0.00000     0.00000     0.77694     0.00000     0.00000
   3       0.00000    -0.00000     0.00000     0.77442     0.00000     0.00000
   4       0.00000    -0.00000     0.00000     0.00000     0.00000     0.00000
   5      -0.00000     0.00000    -0.00000    -0.00000    -0.00000    -0.00000
   6      -0.00000     0.00000    -0.00000    -0.75361    -0.00000    -0.00000
   7      -0.00000     0.00000    -0.00000    -0.75361    -0.00000    -0.00000

            7  
       -----------
   1      -0.00000
   2       0.00000
   3       0.00000
   4       0.00000
   5      -0.00000
   6      -0.00000
   7      -0.00000
  ----------------------------------------------------------------------------
     Transition Moments    X  0.00000   Y -0.08974   Z  0.00000
     Transition Moments   XX  0.00000  XY -0.05069  XZ  0.00000
     Transition Moments   YY  0.00000  YZ  0.00000  ZZ  0.00000
     Dipole Oscillator Strength                         0.00221

     Occ.    5  a   ---  Virt.    6  a      1.00000

              Target root =      1
          Target symmetry = none
      Ground state energy =    -75.295804348691
        Excitation energy =      0.411221803919
     Excited state energy =    -74.884582544772

 fn_civecs: ./water_TDC_13.civecs_singlet                                                                                                                                                                                                                                  

  CI vectors are stored in ./water_TDC_13.civecs_singlet   
              Analysis       0.0 CPU seconds       0.0 Wall seconds
  Memleft= 421227164 doubles

 Task  times  cpu:        0.1s     wall:        0.1s


                                NWChem Input Module
                                -------------------


  File vec is ./water_TDC_13.movecs                                                           

  Limits (a.u.) specified for the density plot:
  ---------------------------------------------

        From        To      # of spacings
X    -1.88973     3.32328       100
Y    -1.88973     1.88973       100
Z    -2.84269     2.84269       100

  Total number of grid points =               1030301

  1-st set of MOs      : ./water_TDC_13.movecs
  Output is written to : water_TDC_13_root1.cube
  Type of picture      : CHARGE DENSITY
  Format used          : Gaussian9x Cube
  Spin                 : TOTAL   
  The density is computed using all orbitals
  The density is computed on the specified grid
  max element    193.35559372855832     

  Sum of elements      =                    86905.43711
  Integration volume   =                        0.00011
  Integrated Charge    =                        9.73470

 Task  times  cpu:        0.8s     wall:        2.2s


                                NWChem Input Module
                                -------------------


 Summary of allocated global arrays
-----------------------------------
  No active global arrays



                         GA Statistics for process    0
                         ------------------------------

       create   destroy   get      put      acc     scatter   gather  read&inc
calls: 2693     2693     1.06e+04 3688     3883        4        0      378     
number of processes/call 1.30e+00 1.40e+00 1.25e+00 0.00e+00 0.00e+00
bytes total:             1.46e+06 6.36e+05 2.90e+05 3.20e+01 0.00e+00 3.02e+03
bytes remote:            6.20e+04 3.11e+04 2.44e+04 0.00e+00 0.00e+00 0.00e+00
Max memory consumed for GA by this process: 69752 bytes

MA_summarize_allocated_blocks: starting scan ...
heap block 'gridpts', handle 88, address 0x2aaaca7c3a28:
	type of elements:		double precision
	number of elements:		84211336
	address of client space:	0x2aaaca7c3a80
	index for client space:		5864103894387
	total number of bytes:		673690784
MA_summarize_allocated_blocks: scan completed: 1 heap block, 0 stack blocks
MA usage statistics:

	allocation statistics:
					      heap	     stack
					      ----	     -----
	current number of blocks	         1	         0
	maximum number of blocks	        24	        51
	current total bytes		 673690784	         0
	maximum total bytes		 673992848	  33011048
	maximum total K-bytes		    673993	     33012
	maximum total M-bytes		       674	        34


                                     CITATION
                                     --------
                Please cite the following reference when publishing
                           results obtained with NWChem:

                 M. Valiev, E.J. Bylaska, N. Govind, K. Kowalski,
              T.P. Straatsma, H.J.J. van Dam, D. Wang, J. Nieplocha,
                        E. Apra, T.L. Windus, W.A. de Jong
                 "NWChem: a comprehensive and scalable open-source
                  solution for large scale molecular simulations"
                      Comput. Phys. Commun. 181, 1477 (2010)
                           doi:10.1016/j.cpc.2010.04.018

                                      AUTHORS
                                      -------
          E. Apra, E. J. Bylaska, W. A. de Jong, N. Govind, K. Kowalski,
       T. P. Straatsma, M. Valiev, H. J. J. van Dam, D. Wang, T. L. Windus,
        J. Hammond, J. Autschbach, K. Bhaskaran-Nair, J. Brabec, K. Lopata,
       S. A. Fischer, S. Krishnamoorthy, W. Ma, M. Klemm, O. Villa, Y. Chen,
    V. Anisimov, F. Aquino, S. Hirata, M. T. Hackler, T. Risthaus, M. Malagoli,
       A. Marenich, A. Otero-de-la-Roza, J. Mullin, P. Nichols, R. Peverati,
     J. Pittner, Y. Zhao, P.-D. Fan, A. Fonari, M. Williamson, R. J. Harrison,
       J. R. Rehr, M. Dupuis, D. Silverstein, D. M. A. Smith, J. Nieplocha,
        V. Tipparaju, M. Krishnan, B. E. Van Kuiken, A. Vazquez-Mayagoitia,
        L. Jensen, M. Swart, Q. Wu, T. Van Voorhis, A. A. Auer, M. Nooijen,
      L. D. Crosby, E. Brown, G. Cisneros, G. I. Fann, H. Fruchtl, J. Garza,
        K. Hirao, R. A. Kendall, J. A. Nichols, K. Tsemekhman, K. Wolinski,
     J. Anchell, D. E. Bernholdt, P. Borowski, T. Clark, D. Clerc, H. Dachsel,
   M. J. O. Deegan, K. Dyall, D. Elwood, E. Glendening, M. Gutowski, A. C. Hess,
         J. Jaffe, B. G. Johnson, J. Ju, R. Kobayashi, R. Kutteh, Z. Lin,
   R. Littlefield, X. Long, B. Meng, T. Nakajima, S. Niu, L. Pollack, M. Rosing,
   K. Glaesemann, G. Sandrone, M. Stave, H. Taylor, G. Thomas, J. H. van Lenthe,
                               A. T. Wong, Z. Zhang.

 Total times  cpu:        1.8s     wall:        3.5s
