 argument  1 = /scratch/owengray/water_TDC_12/water_TDC_12.nw



============================== echo of input deck ==============================
echo

start water_TDC_12
title "water TDC calculation number 12 in STO-3G basis set"
scratch_dir /scratch/owengray/water_TDC_12/
geometry units au noautoz nocenter
symmetry c1
	O	0.0	0	0
	H	0.758602	0	0.504284
	H	0.758602	0	-0.504284
end
basis
	O library STO-3G
	H library STO-3G
end
charge 0
scf
	rohf
	vectors output water_TDC_12.movecs
end
task scf optimize
dft
	xc bhlyp
end
task dft optimizetddft
	cis
	print debug
	notriplet
	civecs
	grad
		root 1
	end
end
task tddft energy
dplot
	root 1
	limitxyz
		-1.0	1.758602	100
		-1	1	100
		-1.504284	1.504284	100
		gaussian
		output water_TDC_12_root1.cube
end
task dplot
================================================================================


                                         
                                         


              Northwest Computational Chemistry Package (NWChem) 6.6
              ------------------------------------------------------


                    Environmental Molecular Sciences Laboratory
                       Pacific Northwest National Laboratory
                                Richland, WA 99352

                              Copyright (c) 1994-2015
                       Pacific Northwest National Laboratory
                            Battelle Memorial Institute

             NWChem is an open-source computational chemistry package
                        distributed under the terms of the
                      Educational Community License (ECL) 2.0
             A copy of the license is included with this distribution
                              in the LICENSE.TXT file

                                  ACKNOWLEDGMENT
                                  --------------

            This software and its documentation were developed at the
            EMSL at Pacific Northwest National Laboratory, a multiprogram
            national laboratory, operated for the U.S. Department of Energy
            by Battelle under Contract Number DE-AC05-76RL01830. Support
            for this work was provided by the Department of Energy Office
            of Biological and Environmental Research, Office of Basic
            Energy Sciences, and the Office of Advanced Scientific Computing.


           Job information
           ---------------

    hostname        = g25
    program         = /cm/shared/NWChem/bin/nwchem
    date            = Wed Jun 29 14:16:17 2016

    compiled        = Wed_Jan_27_15:20:39_2016
    source          = /cm/shared/nwchem-6.6
    nwchem branch   = 6.6
    nwchem revision = 27746
    ga revision     = 10594
    input           = /scratch/owengray/water_TDC_12/water_TDC_12.nw
    prefix          = water_TDC_12.
    data base       = ./water_TDC_12.db
    status          = startup
    nproc           =       20
    time left       =     -1s



           Memory information
           ------------------

    heap     =  210617852 doubles =   1606.9 Mbytes
    stack    =  210617857 doubles =   1606.9 Mbytes
    global   =  421235712 doubles =   3213.8 Mbytes (distinct from heap & stack)
    total    =  842471421 doubles =   6427.5 Mbytes
    verify   = yes
    hardfail = no 


           Directory information
           ---------------------

  0 permanent = .
  0 scratch   = /scratch/owengray/water_TDC_12/




                                NWChem Input Module
                                -------------------


                water TDC calculation number 12 in STO-3G basis set
                ---------------------------------------------------
 Turning off AUTOSYM since
 SYMMETRY directive was detected!



                             Geometry "geometry" -> ""
                             -------------------------

 Output coordinates in a.u. (scale by  1.000000000 to convert to a.u.)

  No.       Tag          Charge          X              Y              Z
 ---- ---------------- ---------- -------------- -------------- --------------
    1 O                    8.0000     0.00000000     0.00000000     0.00000000
    2 H                    1.0000     0.75860200     0.00000000     0.50428400
    3 H                    1.0000     0.75860200     0.00000000    -0.50428400

      Atomic Mass 
      ----------- 

      O                 15.994910
      H                  1.007825


 Effective nuclear repulsion energy (a.u.)      18.5561212901

            Nuclear Dipole moment (a.u.) 
            ----------------------------
        X                 Y               Z
 ---------------- ---------------- ----------------
     1.5172040000     0.0000000000     0.0000000000


            XYZ format geometry
            -------------------
     3
 geometry
 O                     0.00000000     0.00000000     0.00000000
 H                     0.40143492     0.00000000     0.26685562
 H                     0.40143492     0.00000000    -0.26685562

 ==============================================================================
                                internuclear distances
 ------------------------------------------------------------------------------
       center one      |      center two      | atomic units |       a.u.
 ------------------------------------------------------------------------------
    2 H                |   1 O                |     0.91092  |     0.91092
    3 H                |   1 O                |     0.91092  |     0.91092
    3 H                |   2 H                |     1.00857  |     1.00857
 ------------------------------------------------------------------------------
                         number of included internuclear distances:          3
 ==============================================================================



 ==============================================================================
                                 internuclear angles
 ------------------------------------------------------------------------------
        center 1       |       center 2       |       center 3       |  degrees
 ------------------------------------------------------------------------------
    2 H                |   1 O                |   3 H                |    67.23
    2 H                |   1 O                |   3 H                |    67.23
    3 H                |   1 O                |   2 H                |    67.23
 ------------------------------------------------------------------------------
                            number of included internuclear angles:          3
 ==============================================================================



  library name resolved from: environment
  library file name is: </cm/shared/NWChem/data/libraries/>
  
                      Basis "ao basis" -> "" (cartesian)
                      -----
  O (Oxygen)
  ----------
            Exponent  Coefficients 
       -------------- ---------------------------------------------------------
  1 S  1.30709320E+02  0.154329
  1 S  2.38088610E+01  0.535328
  1 S  6.44360830E+00  0.444635

  2 S  5.03315130E+00 -0.099967
  2 S  1.16959610E+00  0.399513
  2 S  3.80389000E-01  0.700115

  3 P  5.03315130E+00  0.155916
  3 P  1.16959610E+00  0.607684
  3 P  3.80389000E-01  0.391957

  H (Hydrogen)
  ------------
            Exponent  Coefficients 
       -------------- ---------------------------------------------------------
  1 S  3.42525091E+00  0.154329
  1 S  6.23913730E-01  0.535328
  1 S  1.68855400E-01  0.444635



 Summary of "ao basis" -> "" (cartesian)
 ------------------------------------------------------------------------------
       Tag                 Description            Shells   Functions and Types
 ---------------- ------------------------------  ------  ---------------------
 O                           STO-3G                  3        5   2s1p
 H                           STO-3G                  1        1   1s




                           NWChem Geometry Optimization
                           ----------------------------




                water TDC calculation number 12 in STO-3G basis set


 maximum gradient threshold         (gmax) =   0.000450
 rms gradient threshold             (grms) =   0.000300
 maximum cartesian step threshold   (xmax) =   0.001800
 rms cartesian step threshold       (xrms) =   0.001200
 fixed trust radius                (trust) =   0.300000
 maximum step size to saddle      (sadstp) =   0.100000
 energy precision                  (eprec) =   1.0D-07
 maximum number of steps          (nptopt) =   20
 initial hessian option           (inhess) =    0
 line search option               (linopt) =    1
 hessian update option            (modupd) =    1
 saddle point option              (modsad) =    0
 initial eigen-mode to follow     (moddir) =    0
 initial variable to follow       (vardir) =    0
 follow first negative mode     (firstneg) =    T
 apply conjugacy                    (opcg) =    F
 source of zmatrix                         =           


          -------------------
          Energy Minimization
          -------------------


 Using diagonal initial Hessian 

          --------
          Step   0
          --------


                         Geometry "geometry" -> "geometry"
                         ---------------------------------

 Output coordinates in a.u. (scale by  1.000000000 to convert to a.u.)

  No.       Tag          Charge          X              Y              Z
 ---- ---------------- ---------- -------------- -------------- --------------
    1 O                    8.0000     0.00000000     0.00000000     0.00000000
    2 H                    1.0000     0.75860200     0.00000000     0.50428400
    3 H                    1.0000     0.75860200     0.00000000    -0.50428400

      Atomic Mass 
      ----------- 

      O                 15.994910
      H                  1.007825


 Effective nuclear repulsion energy (a.u.)      18.5561212901

            Nuclear Dipole moment (a.u.) 
            ----------------------------
        X                 Y               Z
 ---------------- ---------------- ----------------
     1.5172040000     0.0000000000     0.0000000000

                                 NWChem SCF Module
                                 -----------------


                water TDC calculation number 12 in STO-3G basis set



  ao basis        = "ao basis"
  functions       =     7
  atoms           =     3
  closed shells   =     5
  open shells     =     0
  charge          =   0.00
  wavefunction    = RHF 
  input vectors   = atomic
  output vectors  = ./water_TDC_12.movecs
  use symmetry    = F
  symmetry adapt  = F


 Summary of "ao basis" -> "ao basis" (cartesian)
 ------------------------------------------------------------------------------
       Tag                 Description            Shells   Functions and Types
 ---------------- ------------------------------  ------  ---------------------
 O                           STO-3G                  3        5   2s1p
 H                           STO-3G                  1        1   1s



 Forming initial guess at       0.1s


      Superposition of Atomic Density Guess
      -------------------------------------

 Sum of atomic energies:         -74.71095592

      Non-variational initial energy
      ------------------------------

 Total energy =     -75.236609
 1-e energy   =    -134.155736
 2-e energy   =      40.363006
 HOMO         =      -0.531236
 LUMO         =       0.853280


 Starting SCF solution at       0.1s



 ----------------------------------------------
         Quadratically convergent ROHF

 Convergence threshold     :          1.000E-04
 Maximum no. of iterations :           30
 Final Fock-matrix accuracy:          1.000E-07
 ----------------------------------------------


              iter       energy          gnorm     gmax       time
             ----- ------------------- --------- --------- --------
                 1      -72.6174409343  6.12D-01  5.88D-01      0.1
                 2      -72.6386145457  1.10D-01  1.01D-01      0.1
                 3      -72.6387713783  8.05D-03  5.31D-03      0.1
                 4      -72.6387734058  2.39D-05  1.78D-05      0.1


       Final RHF  results 
       ------------------ 

         Total SCF energy =    -72.638773405844
      One-electron energy =   -133.527688535089
      Two-electron energy =     42.332793839156
 Nuclear repulsion energy =     18.556121290089

        Time for solution =      0.0s


             Final eigenvalues
             -----------------

              1      
    1  -20.5330
    2   -1.8810
    3   -0.8151
    4   -0.6309
    5   -0.5711
    6    0.8824
    7    1.6397

                       ROHF Final Molecular Orbital Analysis
                       -------------------------------------

 Vector    2  Occ=2.000000D+00  E=-1.880971D+00
              MO Center=  3.1D-01,  6.6D-18, -3.6D-16, r^2= 3.4D-01
   Bfn.  Coefficient  Atom+Function         Bfn.  Coefficient  Atom+Function  
  ----- ------------  ---------------      ----- ------------  ---------------
     2      0.864107  1 O  s                  3      0.516112  1 O  px         
     1     -0.228477  1 O  s          

 Vector    3  Occ=2.000000D+00  E=-8.150934D-01
              MO Center=  1.2D-01,  1.8D-32,  5.0D-16, r^2= 5.1D-01
   Bfn.  Coefficient  Atom+Function         Bfn.  Coefficient  Atom+Function  
  ----- ------------  ---------------      ----- ------------  ---------------
     5      0.713095  1 O  pz                 6      0.536601  2 H  s          
     7     -0.536601  3 H  s          

 Vector    4  Occ=2.000000D+00  E=-6.308700D-01
              MO Center= -2.9D-01, -8.5D-16, -1.5D-16, r^2= 3.4D-01
   Bfn.  Coefficient  Atom+Function         Bfn.  Coefficient  Atom+Function  
  ----- ------------  ---------------      ----- ------------  ---------------
     3      0.808947  1 O  px                 2     -0.633078  1 O  s          

 Vector    5  Occ=2.000000D+00  E=-5.710710D-01
              MO Center= -1.6D-30,  8.2D-16,  7.0D-32, r^2= 4.2D-01
   Bfn.  Coefficient  Atom+Function         Bfn.  Coefficient  Atom+Function  
  ----- ------------  ---------------      ----- ------------  ---------------
     4      1.000000  1 O  py         

 Vector    6  Occ=0.000000D+00  E= 8.823622D-01
              MO Center=  5.9D-01, -5.6D-19,  4.2D-15, r^2= 1.2D+00
   Bfn.  Coefficient  Atom+Function         Bfn.  Coefficient  Atom+Function  
  ----- ------------  ---------------      ----- ------------  ---------------
     2      2.420848  1 O  s                  6     -1.495765  2 H  s          
     7     -1.495765  3 H  s                  3      1.132189  1 O  px         

 Vector    7  Occ=0.000000D+00  E= 1.639749D+00
              MO Center=  3.2D-01,  8.6D-32, -3.9D-15, r^2= 7.0D-01
   Bfn.  Coefficient  Atom+Function         Bfn.  Coefficient  Atom+Function  
  ----- ------------  ---------------      ----- ------------  ---------------
     6      2.327157  2 H  s                  7     -2.327157  3 H  s          
     5     -1.358061  1 O  pz         


 center of mass
 --------------
 x =   0.08489887 y =   0.00000000 z =   0.00000000

 moments of inertia (a.u.)
 ------------------
           0.512584537131           0.000000000000           0.000000000000
           0.000000000000           1.542727912067           0.000000000000
           0.000000000000           0.000000000000           1.030143374936

  Mulliken analysis of the total density
  --------------------------------------

    Atom       Charge   Shell Charges
 -----------   ------   -------------------------------------------------------
    1 O    8     9.39   2.00  2.09  5.31
    2 H    1     0.30   0.30
    3 H    1     0.30   0.30

       Multipole analysis of the density wrt the origin
       ------------------------------------------------

     L   x y z        total         open         nuclear
     -   - - -        -----         ----         -------
     0   0 0 0     -0.000000      0.000000     10.000000

     1   1 0 0      1.017575      0.000000      1.517204
     1   0 1 0      0.000000      0.000000      0.000000
     1   0 0 1     -0.000000      0.000000      0.000000

     2   2 0 0     -3.261307      0.000000      1.150954
     2   1 1 0     -0.000000      0.000000      0.000000
     2   1 0 1     -0.000000      0.000000      0.000000
     2   0 2 0     -4.132451      0.000000      0.000000
     2   0 1 1      0.000000      0.000000      0.000000
     2   0 0 2     -3.898145      0.000000      0.508605

                              NWChem Gradients Module
                              -----------------------


                water TDC calculation number 12 in STO-3G basis set


  wavefunction    =   RHF     



                         RHF ENERGY GRADIENTS

    atom               coordinates                        gradient
                 x          y          z           x          y          z
   1 O       0.000000   0.000000   0.000000    6.433424   0.000000   0.000000
   2 H       0.758602   0.000000   0.504284   -3.216712  -0.000000  -3.047886
   3 H       0.758602   0.000000  -0.504284   -3.216712  -0.000000   3.047886

                 ----------------------------------------
                 |  Time  |  1-e(secs)   |  2-e(secs)   |
                 ----------------------------------------
                 |  CPU   |       0.00   |       0.00   |
                 ----------------------------------------
                 |  WALL  |       0.00   |       0.00   |
                 ----------------------------------------

@ Step       Energy      Delta E   Gmax     Grms     Xrms     Xmax   Walltime
@ ---- ---------------- -------- -------- -------- -------- -------- --------
@    0     -72.63877341  0.0D+00  6.43342  2.99375  0.00000  0.00000      0.2
                                                                    

 Restricting large step in mode    1 eval= 6.6D-01 step=-4.3D-01 new=-3.0D-01
 Restricting large step in mode    3 eval= 2.2D+00 step=-4.1D+00 new=-3.0D-01
 Restricting overall step due to large component. alpha=  0.89
                                 NWChem SCF Module
                                 -----------------


                water TDC calculation number 12 in STO-3G basis set



  ao basis        = "ao basis"
  functions       =     7
  atoms           =     3
  closed shells   =     5
  open shells     =     0
  charge          =   0.00
  wavefunction    = RHF 
  input vectors   = ./water_TDC_12.movecs
  output vectors  = ./water_TDC_12.movecs
  use symmetry    = F
  symmetry adapt  = F


 Summary of "ao basis" -> "ao basis" (cartesian)
 ------------------------------------------------------------------------------
       Tag                 Description            Shells   Functions and Types
 ---------------- ------------------------------  ------  ---------------------
 O                           STO-3G                  3        5   2s1p
 H                           STO-3G                  1        1   1s



 Forming initial guess at       0.2s


 Loading old vectors from job with title :

water TDC calculation number 12 in STO-3G basis set


 Starting SCF solution at       0.2s



 ----------------------------------------------
         Quadratically convergent ROHF

 Convergence threshold     :          1.000E-04
 Maximum no. of iterations :           30
 Final Fock-matrix accuracy:          1.000E-07
 ----------------------------------------------


              iter       energy          gnorm     gmax       time
             ----- ------------------- --------- --------- --------
                 1      -73.8049299762  1.84D+00  1.52D+00      0.1
                 2      -74.0217359058  5.65D-01  4.18D-01      0.1
                 3      -74.0362440457  1.16D-01  1.10D-01      0.1
                 4      -74.0369585666  1.75D-02  1.40D-02      0.1
                 5      -74.0369806843  2.22D-04  1.58D-04      0.1
                 6      -74.0369806903  3.02D-06  2.14D-06      0.1


       Final RHF  results 
       ------------------ 

         Total SCF energy =    -74.036980690280
      One-electron energy =   -128.087683446529
      Two-electron energy =     40.456659226644
 Nuclear repulsion energy =     13.594043529604

        Time for solution =      0.0s


             Final eigenvalues
             -----------------

              1      
    1  -20.2826
    2   -1.6655
    3   -0.6124
    4   -0.5657
    5   -0.4609
    6    0.7468
    7    1.3394

                       ROHF Final Molecular Orbital Analysis
                       -------------------------------------

 Vector    2  Occ=2.000000D+00  E=-1.665545D+00
              MO Center=  2.3D-01,  3.4D-18, -1.4D-07, r^2= 4.3D-01
   Bfn.  Coefficient  Atom+Function         Bfn.  Coefficient  Atom+Function  
  ----- ------------  ---------------      ----- ------------  ---------------
     2      0.624249  1 O  s                  3      0.336698  1 O  px         
     1     -0.202427  1 O  s                  6      0.181729  2 H  s          
     7      0.181730  3 H  s          

 Vector    3  Occ=2.000000D+00  E=-6.124100D-01
              MO Center= -3.2D-01, -1.3D-17, -1.7D-07, r^2= 4.9D-01
   Bfn.  Coefficient  Atom+Function         Bfn.  Coefficient  Atom+Function  
  ----- ------------  ---------------      ----- ------------  ---------------
     2      0.886328  1 O  s                  3     -0.589675  1 O  px         
     6     -0.249874  2 H  s                  7     -0.249874  3 H  s          
     1     -0.169595  1 O  s          

 Vector    4  Occ=2.000000D+00  E=-5.656947D-01
              MO Center= -2.1D-02,  4.2D-27, -3.7D-08, r^2= 5.3D-01
   Bfn.  Coefficient  Atom+Function         Bfn.  Coefficient  Atom+Function  
  ----- ------------  ---------------      ----- ------------  ---------------
     5      0.799049  1 O  pz                 6      0.536240  2 H  s          
     7     -0.536240  3 H  s          

 Vector    5  Occ=2.000000D+00  E=-4.609447D-01
              MO Center= -1.6D-01,  7.5D-18, -1.8D-07, r^2= 4.2D-01
   Bfn.  Coefficient  Atom+Function         Bfn.  Coefficient  Atom+Function  
  ----- ------------  ---------------      ----- ------------  ---------------
     4      1.000000  1 O  py         

 Vector    6  Occ=0.000000D+00  E= 7.468180D-01
              MO Center=  4.0D-01,  1.6D-18,  4.4D-07, r^2= 8.3D-01
   Bfn.  Coefficient  Atom+Function         Bfn.  Coefficient  Atom+Function  
  ----- ------------  ---------------      ----- ------------  ---------------
     2      1.242860  1 O  s                  3      1.097843  1 O  px         
     6     -0.891520  2 H  s                  7     -0.891517  3 H  s          

 Vector    7  Occ=0.000000D+00  E= 1.339384D+00
              MO Center=  3.7D-01,  3.2D-26, -5.3D-07, r^2= 6.7D-01
   Bfn.  Coefficient  Atom+Function         Bfn.  Coefficient  Atom+Function  
  ----- ------------  ---------------      ----- ------------  ---------------
     6      2.028265  2 H  s                  7     -2.028267  3 H  s          
     5     -0.890033  1 O  pz         


 center of mass
 --------------
 x =  -0.16473943 y =   0.00000000 z =  -0.00000028

 moments of inertia (a.u.)
 ------------------
           0.384848771176           0.000000000000          -0.000001328537
           0.000000000000           2.999635814503          -0.000000000000
          -0.000001328537          -0.000000000000           2.614787043326

  Mulliken analysis of the total density
  --------------------------------------

    Atom       Charge   Shell Charges
 -----------   ------   -------------------------------------------------------
    1 O    8     8.77   2.00  1.95  4.83
    2 H    1     0.61   0.61
    3 H    1     0.61   0.61

       Multipole analysis of the density wrt the origin
       ------------------------------------------------

     L   x y z        total         open         nuclear
     -   - - -        -----         ----         -------
     0   0 0 0     -0.000000      0.000000     10.000000

     1   1 0 0      1.036832      0.000000     -0.582796
     1   0 1 0      0.000000      0.000000      0.000000
     1   0 0 1      0.000000      0.000000     -0.000002

     2   2 0 0     -3.554757      0.000000      2.371115
     2   1 1 0      0.000000      0.000000     -0.000000
     2   1 0 1      0.000000      0.000000      0.000001
     2   0 2 0     -4.343379      0.000000      0.000000
     2   0 1 1     -0.000000      0.000000      0.000000
     2   0 0 2     -4.272863      0.000000      0.381861

 Line search: 
     step= 0.89 grad=-2.8D+00 hess= 1.4D+00 energy=    -74.036981 mode=downhill
 new step= 1.02                   predicted energy=    -74.059351

          --------
          Step   1
          --------


                         Geometry "geometry" -> "geometry"
                         ---------------------------------

 Output coordinates in a.u. (scale by  1.000000000 to convert to a.u.)

  No.       Tag          Charge          X              Y              Z
 ---- ---------------- ---------- -------------- -------------- --------------
    1 O                    8.0000    -0.34304860     0.00000000    -0.00000039
    2 H                    1.0000     0.93012659    -0.00000000     0.42729469
    3 H                    1.0000     0.93012601    -0.00000000    -0.42729430

      Atomic Mass 
      ----------- 

      O                 15.994910
      H                  1.007825


 Effective nuclear repulsion energy (a.u.)      13.0840901243

            Nuclear Dipole moment (a.u.) 
            ----------------------------
        X                 Y               Z
 ---------------- ---------------- ----------------
    -0.8841361871     0.0000000000    -0.0000027214

                                 NWChem SCF Module
                                 -----------------


                water TDC calculation number 12 in STO-3G basis set



  ao basis        = "ao basis"
  functions       =     7
  atoms           =     3
  closed shells   =     5
  open shells     =     0
  charge          =   0.00
  wavefunction    = RHF 
  input vectors   = ./water_TDC_12.movecs
  output vectors  = ./water_TDC_12.movecs
  use symmetry    = F
  symmetry adapt  = F


 Summary of "ao basis" -> "ao basis" (cartesian)
 ------------------------------------------------------------------------------
       Tag                 Description            Shells   Functions and Types
 ---------------- ------------------------------  ------  ---------------------
 O                           STO-3G                  3        5   2s1p
 H                           STO-3G                  1        1   1s



 Forming initial guess at       0.2s


 Loading old vectors from job with title :

water TDC calculation number 12 in STO-3G basis set


 Starting SCF solution at       0.2s



 ----------------------------------------------
         Quadratically convergent ROHF

 Convergence threshold     :          1.000E-04
 Maximum no. of iterations :           30
 Final Fock-matrix accuracy:          1.000E-07
 ----------------------------------------------


              iter       energy          gnorm     gmax       time
             ----- ------------------- --------- --------- --------
                 1      -74.1127234372  1.91D-01  1.49D-01      0.2
                 2      -74.1152281403  4.49D-02  3.57D-02      0.2
                 3      -74.1154567191  1.10D-03  9.83D-04      0.2
                 4      -74.1154567988  3.38D-07  3.07D-07      0.2


       Final RHF  results 
       ------------------ 

         Total SCF energy =    -74.115456798770
      One-electron energy =   -127.392001118586
      Two-electron energy =     40.192454195512
 Nuclear repulsion energy =     13.084090124305

        Time for solution =      0.0s


             Final eigenvalues
             -----------------

              1      
    1  -20.2665
    2   -1.6305
    3   -0.6166
    4   -0.5401
    5   -0.4499
    6    0.7108
    7    1.3116

                       ROHF Final Molecular Orbital Analysis
                       -------------------------------------

 Vector    2  Occ=2.000000D+00  E=-1.630491D+00
              MO Center=  2.2D-01,  2.5D-18, -1.5D-07, r^2= 4.4D-01
   Bfn.  Coefficient  Atom+Function         Bfn.  Coefficient  Atom+Function  
  ----- ------------  ---------------      ----- ------------  ---------------
     2      0.615375  1 O  s                  3      0.312818  1 O  px         
     1     -0.200073  1 O  s                  6      0.195063  2 H  s          
     7      0.195063  3 H  s          

 Vector    3  Occ=2.000000D+00  E=-6.165799D-01
              MO Center= -3.1D-01, -1.2D-17, -1.8D-07, r^2= 5.3D-01
   Bfn.  Coefficient  Atom+Function         Bfn.  Coefficient  Atom+Function  
  ----- ------------  ---------------      ----- ------------  ---------------
     2      0.901953  1 O  s                  3     -0.558554  1 O  px         
     6     -0.271042  2 H  s                  7     -0.271042  3 H  s          
     1     -0.172937  1 O  s          

 Vector    4  Occ=2.000000D+00  E=-5.400800D-01
              MO Center= -4.8D-02,  4.9D-27, -5.0D-08, r^2= 5.3D-01
   Bfn.  Coefficient  Atom+Function         Bfn.  Coefficient  Atom+Function  
  ----- ------------  ---------------      ----- ------------  ---------------
     5      0.815735  1 O  pz                 6      0.524199  2 H  s          
     7     -0.524199  3 H  s          

 Vector    5  Occ=2.000000D+00  E=-4.498541D-01
              MO Center= -1.8D-01,  7.4D-18, -2.1D-07, r^2= 4.2D-01
   Bfn.  Coefficient  Atom+Function         Bfn.  Coefficient  Atom+Function  
  ----- ------------  ---------------      ----- ------------  ---------------
     4      1.000000  1 O  py         

 Vector    6  Occ=0.000000D+00  E= 7.108317D-01
              MO Center=  3.6D-01,  1.8D-18,  4.6D-07, r^2= 8.1D-01
   Bfn.  Coefficient  Atom+Function         Bfn.  Coefficient  Atom+Function  
  ----- ------------  ---------------      ----- ------------  ---------------
     2      1.125586  1 O  s                  3      1.091175  1 O  px         
     6     -0.830079  2 H  s                  7     -0.830076  3 H  s          

 Vector    7  Occ=0.000000D+00  E= 1.311560D+00
              MO Center=  3.8D-01,  4.4D-26, -5.6D-07, r^2= 6.7D-01
   Bfn.  Coefficient  Atom+Function         Bfn.  Coefficient  Atom+Function  
  ----- ------------  ---------------      ----- ------------  ---------------
     6      2.025694  2 H  s                  7     -2.025697  3 H  s          
     5     -0.839360  1 O  pz         


 center of mass
 --------------
 x =  -0.20056136 y =   0.00000000 z =  -0.00000032

 moments of inertia (a.u.)
 ------------------
           0.368018561390           0.000000000000          -0.000001580888
           0.000000000000           3.269674008648          -0.000000000000
          -0.000001580888          -0.000000000000           2.901655447258

  Mulliken analysis of the total density
  --------------------------------------

    Atom       Charge   Shell Charges
 -----------   ------   -------------------------------------------------------
    1 O    8     8.71   2.00  1.95  4.77
    2 H    1     0.64   0.64
    3 H    1     0.64   0.64

       Multipole analysis of the density wrt the origin
       ------------------------------------------------

     L   x y z        total         open         nuclear
     -   - - -        -----         ----         -------
     0   0 0 0     -0.000000      0.000000     10.000000

     1   1 0 0      1.014693      0.000000     -0.884136
     1   0 1 0      0.000000      0.000000      0.000000
     1   0 0 1      0.000000      0.000000     -0.000003

     2   2 0 0     -3.604305      0.000000      2.671729
     2   1 1 0      0.000000      0.000000     -0.000000
     2   1 0 1      0.000000      0.000000      0.000002
     2   0 2 0     -4.375243      0.000000      0.000000
     2   0 1 1     -0.000000      0.000000      0.000000
     2   0 0 2     -4.315385      0.000000      0.365161

                              NWChem Gradients Module
                              -----------------------


                water TDC calculation number 12 in STO-3G basis set


  wavefunction    =   RHF     



                         RHF ENERGY GRADIENTS

    atom               coordinates                        gradient
                 x          y          z           x          y          z
   1 O      -0.343049   0.000000  -0.000000    1.491840   0.000000  -0.000001
   2 H       0.930127  -0.000000   0.427295   -0.745919  -0.000000  -1.407497
   3 H       0.930126  -0.000000  -0.427294   -0.745921  -0.000000   1.407497

                 ----------------------------------------
                 |  Time  |  1-e(secs)   |  2-e(secs)   |
                 ----------------------------------------
                 |  CPU   |       0.00   |       0.00   |
                 ----------------------------------------
                 |  WALL  |       0.00   |       0.00   |
                 ----------------------------------------

  Step       Energy      Delta E   Gmax     Grms     Xrms     Xmax   Walltime
  ---- ---------------- -------- -------- -------- -------- -------- --------
@    1     -74.11545680 -1.5D+00  1.49184  0.90065  0.14468  0.34305      0.3
                                                                    

 Restricting large step in mode    1 eval= 6.6D-01 step=-1.7D+00 new=-3.0D-01
                                 NWChem SCF Module
                                 -----------------


                water TDC calculation number 12 in STO-3G basis set



  ao basis        = "ao basis"
  functions       =     7
  atoms           =     3
  closed shells   =     5
  open shells     =     0
  charge          =   0.00
  wavefunction    = RHF 
  input vectors   = ./water_TDC_12.movecs
  output vectors  = ./water_TDC_12.movecs
  use symmetry    = F
  symmetry adapt  = F


 Summary of "ao basis" -> "ao basis" (cartesian)
 ------------------------------------------------------------------------------
       Tag                 Description            Shells   Functions and Types
 ---------------- ------------------------------  ------  ---------------------
 O                           STO-3G                  3        5   2s1p
 H                           STO-3G                  1        1   1s



 Forming initial guess at       0.3s


 Loading old vectors from job with title :

water TDC calculation number 12 in STO-3G basis set


 Starting SCF solution at       0.3s



 ----------------------------------------------
         Quadratically convergent ROHF

 Convergence threshold     :          1.000E-04
 Maximum no. of iterations :           30
 Final Fock-matrix accuracy:          1.000E-07
 ----------------------------------------------


              iter       energy          gnorm     gmax       time
             ----- ------------------- --------- --------- --------
                 1      -74.5714997867  1.64D-01  1.47D-01      0.2
                 2      -74.5744897127  5.44D-02  4.77D-02      0.2
                 3      -74.5747336968  2.21D-04  1.99D-04      0.2
                 4      -74.5747336981  4.37D-06  3.25D-06      0.2


       Final RHF  results 
       ------------------ 

         Total SCF energy =    -74.574733698088
      One-electron energy =   -126.176214421833
      Two-electron energy =     39.733665938616
 Nuclear repulsion energy =     11.867814785130

        Time for solution =      0.0s


             Final eigenvalues
             -----------------

              1      
    1  -20.2566
    2   -1.5086
    3   -0.5795
    4   -0.5762
    5   -0.4335
    6    0.7333
    7    1.0181

                       ROHF Final Molecular Orbital Analysis
                       -------------------------------------

 Vector    2  Occ=2.000000D+00  E=-1.508576D+00
              MO Center=  1.7D-01,  1.5D-18,  3.3D-07, r^2= 4.6D-01
   Bfn.  Coefficient  Atom+Function         Bfn.  Coefficient  Atom+Function  
  ----- ------------  ---------------      ----- ------------  ---------------
     2      0.696692  1 O  s                  3      0.281129  1 O  px         
     1     -0.212016  1 O  s                  6      0.173126  2 H  s          
     7      0.173125  3 H  s          

 Vector    3  Occ=2.000000D+00  E=-5.795141D-01
              MO Center= -3.0D-01, -1.1D-17, -6.6D-07, r^2= 5.4D-01
   Bfn.  Coefficient  Atom+Function         Bfn.  Coefficient  Atom+Function  
  ----- ------------  ---------------      ----- ------------  ---------------
     2      0.794748  1 O  s                  3     -0.635103  1 O  px         
     6     -0.257700  2 H  s                  7     -0.257693  3 H  s          
     1     -0.154065  1 O  s          

 Vector    4  Occ=2.000000D+00  E=-5.762005D-01
              MO Center=  1.1D-02,  2.5D-25,  5.8D-07, r^2= 5.9D-01
   Bfn.  Coefficient  Atom+Function         Bfn.  Coefficient  Atom+Function  
  ----- ------------  ---------------      ----- ------------  ---------------
     5      0.740032  1 O  pz                 6      0.494064  2 H  s          
     7     -0.494068  3 H  s          

 Vector    5  Occ=2.000000D+00  E=-4.335026D-01
              MO Center= -1.8D-01,  7.3D-18,  1.7D-07, r^2= 4.2D-01
   Bfn.  Coefficient  Atom+Function         Bfn.  Coefficient  Atom+Function  
  ----- ------------  ---------------      ----- ------------  ---------------
     4      1.000000  1 O  py         

 Vector    6  Occ=0.000000D+00  E= 7.333489D-01
              MO Center=  3.9D-01,  2.6D-18, -1.6D-06, r^2= 8.5D-01
   Bfn.  Coefficient  Atom+Function         Bfn.  Coefficient  Atom+Function  
  ----- ------------  ---------------      ----- ------------  ---------------
     2      1.096797  1 O  s                  3      1.015803  1 O  px         
     6     -0.843666  2 H  s                  7     -0.843672  3 H  s          

 Vector    7  Occ=0.000000D+00  E= 1.018136D+00
              MO Center=  3.2D-01, -1.2D-25,  1.8D-06, r^2= 7.6D-01
   Bfn.  Coefficient  Atom+Function         Bfn.  Coefficient  Atom+Function  
  ----- ------------  ---------------      ----- ------------  ---------------
     6      1.396387  2 H  s                  7     -1.396382  3 H  s          
     5     -0.906443  1 O  pz         


 center of mass
 --------------
 x =  -0.20481236 y =   0.00000000 z =   0.00000027

 moments of inertia (a.u.)
 ------------------
           0.874641784995           0.000000000000           0.000001963789
           0.000000000000           3.811330878510          -0.000000000000
           0.000001963789          -0.000000000000           2.936689093515

  Mulliken analysis of the total density
  --------------------------------------

    Atom       Charge   Shell Charges
 -----------   ------   -------------------------------------------------------
    1 O    8     8.61   2.00  1.92  4.70
    2 H    1     0.69   0.69
    3 H    1     0.69   0.69

       Multipole analysis of the density wrt the origin
       ------------------------------------------------

     L   x y z        total         open         nuclear
     -   - - -        -----         ----         -------
     0   0 0 0     -0.000000      0.000000     10.000000

     1   1 0 0      0.950082      0.000000     -0.919896
     1   0 1 0      0.000000      0.000000      0.000000
     1   0 0 1      0.000000      0.000000      0.000002

     2   2 0 0     -3.668832      0.000000      2.709494
     2   1 1 0      0.000000      0.000000     -0.000000
     2   1 0 1     -0.000000      0.000000     -0.000002
     2   0 2 0     -4.401085      0.000000      0.000000
     2   0 1 1     -0.000000      0.000000      0.000000
     2   0 0 2     -4.155787      0.000000      0.867851

 Line search: 
     step= 1.00 grad=-6.6D-01 hess= 2.0D-01 energy=    -74.574734 mode=downhill
 new step= 1.63                   predicted energy=    -74.654956

          --------
          Step   2
          --------


                         Geometry "geometry" -> "geometry"
                         ---------------------------------

 Output coordinates in a.u. (scale by  1.000000000 to convert to a.u.)

  No.       Tag          Charge          X              Y              Z
 ---- ---------------- ---------- -------------- -------------- --------------
    1 O                    8.0000    -0.35136356    -0.00000000     0.00000078
    2 H                    1.0000     0.93428258     0.00000000     0.80398846
    3 H                    1.0000     0.93428498     0.00000000    -0.80398924

      Atomic Mass 
      ----------- 

      O                 15.994910
      H                  1.007825


 Effective nuclear repulsion energy (a.u.)      11.1736220550

            Nuclear Dipole moment (a.u.) 
            ----------------------------
        X                 Y               Z
 ---------------- ---------------- ----------------
    -0.9423409050    -0.0000000000     0.0000054699

                                 NWChem SCF Module
                                 -----------------


                water TDC calculation number 12 in STO-3G basis set



  ao basis        = "ao basis"
  functions       =     7
  atoms           =     3
  closed shells   =     5
  open shells     =     0
  charge          =   0.00
  wavefunction    = RHF 
  input vectors   = ./water_TDC_12.movecs
  output vectors  = ./water_TDC_12.movecs
  use symmetry    = F
  symmetry adapt  = F


 Summary of "ao basis" -> "ao basis" (cartesian)
 ------------------------------------------------------------------------------
       Tag                 Description            Shells   Functions and Types
 ---------------- ------------------------------  ------  ---------------------
 O                           STO-3G                  3        5   2s1p
 H                           STO-3G                  1        1   1s



 Forming initial guess at       0.3s


 Loading old vectors from job with title :

water TDC calculation number 12 in STO-3G basis set


 Starting SCF solution at       0.3s



 ----------------------------------------------
         Quadratically convergent ROHF

 Convergence threshold     :          1.000E-04
 Maximum no. of iterations :           30
 Final Fock-matrix accuracy:          1.000E-07
 ----------------------------------------------


              iter       energy          gnorm     gmax       time
             ----- ------------------- --------- --------- --------
                 1      -74.7394914473  6.92D-02  4.23D-02      0.2
                 2      -74.7398995551  1.91D-03  1.34D-03      0.3
                 3      -74.7398998727  4.42D-06  3.00D-06      0.3


       Final RHF  results 
       ------------------ 

         Total SCF energy =    -74.739899872719
      One-electron energy =   -125.287379887701
      Two-electron energy =     39.373857959968
 Nuclear repulsion energy =     11.173622055014

        Time for solution =      0.0s


             Final eigenvalues
             -----------------

              1      
    1  -20.2547
    2   -1.4418
    3   -0.5909
    4   -0.5579
    5   -0.4245
    6    0.7325
    7    0.9102

                       ROHF Final Molecular Orbital Analysis
                       -------------------------------------

 Vector    2  Occ=2.000000D+00  E=-1.441798D+00
              MO Center=  1.3D-01,  2.7D-19,  8.2D-07, r^2= 4.8D-01
   Bfn.  Coefficient  Atom+Function         Bfn.  Coefficient  Atom+Function  
  ----- ------------  ---------------      ----- ------------  ---------------
     2      0.735361  1 O  s                  3      0.249574  1 O  px         
     1     -0.217847  1 O  s                  6      0.167144  2 H  s          
     7      0.167143  3 H  s          

 Vector    3  Occ=2.000000D+00  E=-5.909153D-01
              MO Center=  3.9D-02, -1.3D-25, -5.4D-07, r^2= 6.3D-01
   Bfn.  Coefficient  Atom+Function         Bfn.  Coefficient  Atom+Function  
  ----- ------------  ---------------      ----- ------------  ---------------
     5      0.704036  1 O  pz                 6      0.479516  2 H  s          
     7     -0.479516  3 H  s          

 Vector    4  Occ=2.000000D+00  E=-5.578766D-01
              MO Center= -2.9D-01, -1.1D-17,  2.8D-07, r^2= 5.6D-01
   Bfn.  Coefficient  Atom+Function         Bfn.  Coefficient  Atom+Function  
  ----- ------------  ---------------      ----- ------------  ---------------
     2      0.736465  1 O  s                  3     -0.668614  1 O  px         
     6     -0.259440  2 H  s                  7     -0.259443  3 H  s          

 Vector    5  Occ=2.000000D+00  E=-4.245110D-01
              MO Center= -1.9D-01,  7.1D-18,  4.1D-07, r^2= 4.2D-01
   Bfn.  Coefficient  Atom+Function         Bfn.  Coefficient  Atom+Function  
  ----- ------------  ---------------      ----- ------------  ---------------
     4      1.000000  1 O  py         

 Vector    6  Occ=0.000000D+00  E= 7.324520D-01
              MO Center=  4.0D-01,  3.2D-18, -5.3D-06, r^2= 8.7D-01
   Bfn.  Coefficient  Atom+Function         Bfn.  Coefficient  Atom+Function  
  ----- ------------  ---------------      ----- ------------  ---------------
     2      1.052846  1 O  s                  3      0.966497  1 O  px         
     6     -0.837821  2 H  s                  7     -0.837836  3 H  s          

 Vector    7  Occ=0.000000D+00  E= 9.101558D-01
              MO Center=  3.0D-01, -4.1D-25,  5.8D-06, r^2= 8.1D-01
   Bfn.  Coefficient  Atom+Function         Bfn.  Coefficient  Atom+Function  
  ----- ------------  ---------------      ----- ------------  ---------------
     6      1.191515  2 H  s                  7     -1.191500  3 H  s          
     5     -0.929089  1 O  pz         


 center of mass
 --------------
 x =  -0.20748047 y =  -0.00000000 z =   0.00000065

 moments of inertia (a.u.)
 ------------------
           1.302912272481          -0.000000000000           0.000004640309
          -0.000000000000           4.261697326046          -0.000000000000
           0.000004640309          -0.000000000000           2.958785053565

  Mulliken analysis of the total density
  --------------------------------------

    Atom       Charge   Shell Charges
 -----------   ------   -------------------------------------------------------
    1 O    8     8.54   2.00  1.90  4.65
    2 H    1     0.73   0.73
    3 H    1     0.73   0.73

       Multipole analysis of the density wrt the origin
       ------------------------------------------------

     L   x y z        total         open         nuclear
     -   - - -        -----         ----         -------
     0   0 0 0     -0.000000      0.000000     10.000000

     1   1 0 0      0.892686      0.000000     -0.942341
     1   0 1 0      0.000000      0.000000     -0.000000
     1   0 0 1      0.000000      0.000000      0.000005

     2   2 0 0     -3.740955      0.000000      2.733423
     2   1 1 0      0.000000      0.000000      0.000000
     2   1 0 1     -0.000000      0.000000     -0.000005
     2   0 2 0     -4.429654      0.000000      0.000000
     2   0 1 1     -0.000000      0.000000      0.000000
     2   0 0 2     -4.034904      0.000000      1.292796

                              NWChem Gradients Module
                              -----------------------


                water TDC calculation number 12 in STO-3G basis set


  wavefunction    =   RHF     



                         RHF ENERGY GRADIENTS

    atom               coordinates                        gradient
                 x          y          z           x          y          z
   1 O      -0.351364  -0.000000   0.000001    0.535766   0.000000   0.000003
   2 H       0.934283   0.000000   0.803988   -0.267885  -0.000000  -0.453042
   3 H       0.934285   0.000000  -0.803989   -0.267881  -0.000000   0.453039

                 ----------------------------------------
                 |  Time  |  1-e(secs)   |  2-e(secs)   |
                 ----------------------------------------
                 |  CPU   |       0.00   |       0.00   |
                 ----------------------------------------
                 |  WALL  |       0.00   |       0.00   |
                 ----------------------------------------

  Step       Energy      Delta E   Gmax     Grms     Xrms     Xmax   Walltime
  ---- ---------------- -------- -------- -------- -------- -------- --------
@    2     -74.73989987 -6.2D-01  0.53577  0.30570  0.17761  0.37669      0.4
                                                                    

                                 NWChem SCF Module
                                 -----------------


                water TDC calculation number 12 in STO-3G basis set



  ao basis        = "ao basis"
  functions       =     7
  atoms           =     3
  closed shells   =     5
  open shells     =     0
  charge          =   0.00
  wavefunction    = RHF 
  input vectors   = ./water_TDC_12.movecs
  output vectors  = ./water_TDC_12.movecs
  use symmetry    = F
  symmetry adapt  = F


 Summary of "ao basis" -> "ao basis" (cartesian)
 ------------------------------------------------------------------------------
       Tag                 Description            Shells   Functions and Types
 ---------------- ------------------------------  ------  ---------------------
 O                           STO-3G                  3        5   2s1p
 H                           STO-3G                  1        1   1s



 Forming initial guess at       0.4s


 Loading old vectors from job with title :

water TDC calculation number 12 in STO-3G basis set


 Starting SCF solution at       0.4s



 ----------------------------------------------
         Quadratically convergent ROHF

 Convergence threshold     :          1.000E-04
 Maximum no. of iterations :           30
 Final Fock-matrix accuracy:          1.000E-07
 ----------------------------------------------


              iter       energy          gnorm     gmax       time
             ----- ------------------- --------- --------- --------
                 1      -74.8673801836  1.25D-01  9.09D-02      0.3
                 2      -74.8680646030  2.52D-03  1.78D-03      0.3
                 3      -74.8680649919  5.27D-08  4.43D-08      0.3


       Final RHF  results 
       ------------------ 

         Total SCF energy =    -74.868064991864
      One-electron energy =   -123.967457057398
      Two-electron energy =     38.828875079586
 Nuclear repulsion energy =     10.270516985948

        Time for solution =      0.0s


             Final eigenvalues
             -----------------

              1      
    1  -20.2547
    2   -1.3672
    3   -0.5852
    4   -0.5348
    5   -0.4131
    6    0.6931
    7    0.8028

                       ROHF Final Molecular Orbital Analysis
                       -------------------------------------

 Vector    2  Occ=2.000000D+00  E=-1.367176D+00
              MO Center=  8.3D-02, -1.6D-18, -1.7D-06, r^2= 5.1D-01
   Bfn.  Coefficient  Atom+Function         Bfn.  Coefficient  Atom+Function  
  ----- ------------  ---------------      ----- ------------  ---------------
     2      0.774904  1 O  s                  1     -0.223331  1 O  s          
     3      0.204234  1 O  px                 6      0.164765  2 H  s          
     7      0.164766  3 H  s          

 Vector    3  Occ=2.000000D+00  E=-5.851964D-01
              MO Center=  5.5D-02,  2.0D-25,  4.2D-07, r^2= 6.9D-01
   Bfn.  Coefficient  Atom+Function         Bfn.  Coefficient  Atom+Function  
  ----- ------------  ---------------      ----- ------------  ---------------
     5      0.678740  1 O  pz                 6      0.466162  2 H  s          
     7     -0.466164  3 H  s          

 Vector    4  Occ=2.000000D+00  E=-5.347548D-01
              MO Center= -2.5D-01, -9.2D-18, -5.2D-07, r^2= 6.1D-01
   Bfn.  Coefficient  Atom+Function         Bfn.  Coefficient  Atom+Function  
  ----- ------------  ---------------      ----- ------------  ---------------
     3     -0.685085  1 O  px                 2      0.679480  1 O  s          
     6     -0.277272  2 H  s                  7     -0.277268  3 H  s          

 Vector    5  Occ=2.000000D+00  E=-4.130517D-01
              MO Center= -2.0D-01,  6.8D-18, -1.2D-06, r^2= 4.2D-01
   Bfn.  Coefficient  Atom+Function         Bfn.  Coefficient  Atom+Function  
  ----- ------------  ---------------      ----- ------------  ---------------
     4      1.000000  1 O  py         

 Vector    6  Occ=0.000000D+00  E= 6.930668D-01
              MO Center=  3.8D-01,  4.0D-18,  1.4D-05, r^2= 9.1D-01
   Bfn.  Coefficient  Atom+Function         Bfn.  Coefficient  Atom+Function  
  ----- ------------  ---------------      ----- ------------  ---------------
     2      0.948002  1 O  s                  3      0.914509  1 O  px         
     6     -0.801076  2 H  s                  7     -0.801042  3 H  s          

 Vector    7  Occ=0.000000D+00  E= 8.028217D-01
              MO Center=  2.7D-01,  1.2D-24, -1.5D-05, r^2= 8.7D-01
   Bfn.  Coefficient  Atom+Function         Bfn.  Coefficient  Atom+Function  
  ----- ------------  ---------------      ----- ------------  ---------------
     6      1.027087  2 H  s                  7     -1.027119  3 H  s          
     5     -0.924148  1 O  pz         


 center of mass
 --------------
 x =  -0.22977352 y =  -0.00000000 z =  -0.00000188

 moments of inertia (a.u.)
 ------------------
           1.881553159292          -0.000000000000          -0.000010007329
          -0.000000000000           5.028195179941          -0.000000000000
          -0.000010007329          -0.000000000000           3.146642020649

  Mulliken analysis of the total density
  --------------------------------------

    Atom       Charge   Shell Charges
 -----------   ------   -------------------------------------------------------
    1 O    8     8.45   2.00  1.88  4.56
    2 H    1     0.78   0.78
    3 H    1     0.78   0.78

       Multipole analysis of the density wrt the origin
       ------------------------------------------------

     L   x y z        total         open         nuclear
     -   - - -        -----         ----         -------
     0   0 0 0     -0.000000      0.000000     10.000000

     1   1 0 0      0.821265      0.000000     -1.129874
     1   0 1 0      0.000000      0.000000     -0.000000
     1   0 0 1      0.000000      0.000000     -0.000016

     2   2 0 0     -3.839839      0.000000      2.940194
     2   1 1 0      0.000000      0.000000      0.000000
     2   1 0 1     -0.000000      0.000000      0.000011
     2   0 2 0     -4.479088      0.000000      0.000000
     2   0 1 1     -0.000000      0.000000      0.000000
     2   0 0 2     -3.912614      0.000000      1.866944

 Line search: 
     step= 1.00 grad=-1.7D-01 hess= 4.0D-02 energy=    -74.868065 mode=downhill
 new step= 2.09                   predicted energy=    -74.915938

          --------
          Step   3
          --------


                         Geometry "geometry" -> "geometry"
                         ---------------------------------

 Output coordinates in a.u. (scale by  1.000000000 to convert to a.u.)

  No.       Tag          Charge          X              Y              Z
 ---- ---------------- ---------- -------------- -------------- --------------
    1 O                    8.0000    -0.40735028    -0.00000000    -0.00000557
    2 H                    1.0000     0.96228056     0.00000000     1.14290507
    3 H                    1.0000     0.96227372     0.00000000    -1.14289950

      Atomic Mass 
      ----------- 

      O                 15.994910
      H                  1.007825


 Effective nuclear repulsion energy (a.u.)       9.4068691737

            Nuclear Dipole moment (a.u.) 
            ----------------------------
        X                 Y               Z
 ---------------- ---------------- ----------------
    -1.3342479677    -0.0000000000    -0.0000390035

                                 NWChem SCF Module
                                 -----------------


                water TDC calculation number 12 in STO-3G basis set



  ao basis        = "ao basis"
  functions       =     7
  atoms           =     3
  closed shells   =     5
  open shells     =     0
  charge          =   0.00
  wavefunction    = RHF 
  input vectors   = ./water_TDC_12.movecs
  output vectors  = ./water_TDC_12.movecs
  use symmetry    = F
  symmetry adapt  = F


 Summary of "ao basis" -> "ao basis" (cartesian)
 ------------------------------------------------------------------------------
       Tag                 Description            Shells   Functions and Types
 ---------------- ------------------------------  ------  ---------------------
 O                           STO-3G                  3        5   2s1p
 H                           STO-3G                  1        1   1s



 Forming initial guess at       0.4s


 Loading old vectors from job with title :

water TDC calculation number 12 in STO-3G basis set


 Starting SCF solution at       0.4s



 ----------------------------------------------
         Quadratically convergent ROHF

 Convergence threshold     :          1.000E-04
 Maximum no. of iterations :           30
 Final Fock-matrix accuracy:          1.000E-07
 ----------------------------------------------


              iter       energy          gnorm     gmax       time
             ----- ------------------- --------- --------- --------
                 1      -74.9361389169  1.28D-01  8.75D-02      0.3
                 2      -74.9368444034  3.18D-03  1.88D-03      0.3
                 3      -74.9368455162  2.31D-07  2.09D-07      0.4


       Final RHF  results 
       ------------------ 

         Total SCF energy =    -74.936845516221
      One-electron energy =   -122.592328993384
      Two-electron energy =     38.248614303510
 Nuclear repulsion energy =      9.406869173652

        Time for solution =      0.0s


             Final eigenvalues
             -----------------

              1      
    1  -20.2595
    2   -1.3033
    3   -0.5707
    4   -0.5100
    5   -0.4040
    6    0.6330
    7    0.7077

                       ROHF Final Molecular Orbital Analysis
                       -------------------------------------

 Vector    2  Occ=2.000000D+00  E=-1.303323D+00
              MO Center=  2.7D-02, -3.5D-18, -5.1D-06, r^2= 5.3D-01
   Bfn.  Coefficient  Atom+Function         Bfn.  Coefficient  Atom+Function  
  ----- ------------  ---------------      ----- ------------  ---------------
     2      0.815228  1 O  s                  1     -0.228864  1 O  s          
     3      0.159755  1 O  px                 6      0.159881  2 H  s          
     7      0.159885  3 H  s          

 Vector    3  Occ=2.000000D+00  E=-5.707423D-01
              MO Center=  7.0D-02,  5.5D-25, -8.5D-08, r^2= 7.5D-01
   Bfn.  Coefficient  Atom+Function         Bfn.  Coefficient  Atom+Function  
  ----- ------------  ---------------      ----- ------------  ---------------
     5      0.658116  1 O  pz                 6      0.458143  2 H  s          
     7     -0.458147  3 H  s          

 Vector    4  Occ=2.000000D+00  E=-5.099828D-01
              MO Center= -2.2D-01, -7.7D-18,  9.8D-07, r^2= 6.7D-01
   Bfn.  Coefficient  Atom+Function         Bfn.  Coefficient  Atom+Function  
  ----- ------------  ---------------      ----- ------------  ---------------
     3      0.696729  1 O  px                 2     -0.619130  1 O  s          
     6      0.299208  2 H  s                  7      0.299194  3 H  s          

 Vector    5  Occ=2.000000D+00  E=-4.039561D-01
              MO Center= -2.2D-01,  6.5D-18, -2.9D-06, r^2= 4.2D-01
   Bfn.  Coefficient  Atom+Function         Bfn.  Coefficient  Atom+Function  
  ----- ------------  ---------------      ----- ------------  ---------------
     4      1.000000  1 O  py         

 Vector    6  Occ=0.000000D+00  E= 6.329813D-01
              MO Center=  3.6D-01,  4.8D-18,  5.7D-05, r^2= 9.5D-01
   Bfn.  Coefficient  Atom+Function         Bfn.  Coefficient  Atom+Function  
  ----- ------------  ---------------      ----- ------------  ---------------
     3      0.865003  1 O  px                 2      0.836566  1 O  s          
     6     -0.760845  2 H  s                  7     -0.760737  3 H  s          

 Vector    7  Occ=0.000000D+00  E= 7.076625D-01
              MO Center=  2.5D-01,  5.2D-24, -5.9D-05, r^2= 9.4D-01
   Bfn.  Coefficient  Atom+Function         Bfn.  Coefficient  Atom+Function  
  ----- ------------  ---------------      ----- ------------  ---------------
     5      0.912986  1 O  pz                 6     -0.902881  2 H  s          
     7      0.902986  3 H  s          


 center of mass
 --------------
 x =  -0.25406857 y =  -0.00000000 z =  -0.00000464

 moments of inertia (a.u.)
 ------------------
           2.632893687681          -0.000000000000          -0.000028361632
          -0.000000000000           5.990846525427          -0.000000000000
          -0.000028361632          -0.000000000000           3.357952837746

  Mulliken analysis of the total density
  --------------------------------------

    Atom       Charge   Shell Charges
 -----------   ------   -------------------------------------------------------
    1 O    8     8.36   2.00  1.88  4.48
    2 H    1     0.82   0.82
    3 H    1     0.82   0.82

       Multipole analysis of the density wrt the origin
       ------------------------------------------------

     L   x y z        total         open         nuclear
     -   - - -        -----         ----         -------
     0   0 0 0      0.000000      0.000000     10.000000

     1   1 0 0      0.748551      0.000000     -1.334248
     1   0 1 0      0.000000      0.000000     -0.000000
     1   0 0 1     -0.000001      0.000000     -0.000039

     2   2 0 0     -3.936105      0.000000      3.179429
     2   1 1 0      0.000000      0.000000      0.000000
     2   1 0 1     -0.000000      0.000000      0.000031
     2   0 2 0     -4.531639      0.000000      0.000000
     2   0 1 1     -0.000000      0.000000      0.000000
     2   0 0 2     -3.774249      0.000000      2.612451

                              NWChem Gradients Module
                              -----------------------


                water TDC calculation number 12 in STO-3G basis set


  wavefunction    =   RHF     



                         RHF ENERGY GRADIENTS

    atom               coordinates                        gradient
                 x          y          z           x          y          z
   1 O      -0.407350  -0.000000  -0.000006    0.029054   0.000000  -0.000009
   2 H       0.962281   0.000000   1.142905   -0.014522  -0.000000  -0.110707
   3 H       0.962274   0.000000  -1.142899   -0.014532  -0.000000   0.110716

                 ----------------------------------------
                 |  Time  |  1-e(secs)   |  2-e(secs)   |
                 ----------------------------------------
                 |  CPU   |       0.00   |       0.00   |
                 ----------------------------------------
                 |  WALL  |       0.00   |       0.00   |
                 ----------------------------------------

  Step       Energy      Delta E   Gmax     Grms     Xrms     Xmax   Walltime
  ---- ---------------- -------- -------- -------- -------- -------- --------
@    3     -74.93684552 -2.0D-01  0.11072  0.05352  0.16139  0.33892      0.5
                                                                    

                                 NWChem SCF Module
                                 -----------------


                water TDC calculation number 12 in STO-3G basis set



  ao basis        = "ao basis"
  functions       =     7
  atoms           =     3
  closed shells   =     5
  open shells     =     0
  charge          =   0.00
  wavefunction    = RHF 
  input vectors   = ./water_TDC_12.movecs
  output vectors  = ./water_TDC_12.movecs
  use symmetry    = F
  symmetry adapt  = F


 Summary of "ao basis" -> "ao basis" (cartesian)
 ------------------------------------------------------------------------------
       Tag                 Description            Shells   Functions and Types
 ---------------- ------------------------------  ------  ---------------------
 O                           STO-3G                  3        5   2s1p
 H                           STO-3G                  1        1   1s



 Forming initial guess at       0.5s


 Loading old vectors from job with title :

water TDC calculation number 12 in STO-3G basis set


 Starting SCF solution at       0.5s



 ----------------------------------------------
         Quadratically convergent ROHF

 Convergence threshold     :          1.000E-04
 Maximum no. of iterations :           30
 Final Fock-matrix accuracy:          1.000E-07
 ----------------------------------------------


              iter       energy          gnorm     gmax       time
             ----- ------------------- --------- --------- --------
                 1      -74.9571711751  5.35D-02  3.56D-02      0.4
                 2      -74.9573633281  2.68D-03  2.24D-03      0.4
                 3      -74.9573640130  2.26D-07  1.60D-07      0.4


       Final RHF  results 
       ------------------ 

         Total SCF energy =    -74.957364012957
      One-electron energy =   -121.980390784501
      Two-electron energy =     37.992449857774
 Nuclear repulsion energy =      9.030576913770

        Time for solution =      0.0s


             Final eigenvalues
             -----------------

              1      
    1  -20.2612
    2   -1.2751
    3   -0.5724
    4   -0.4895
    5   -0.3996
    6    0.6018
    7    0.6752

                       ROHF Final Molecular Orbital Analysis
                       -------------------------------------

 Vector    2  Occ=2.000000D+00  E=-1.275089D+00
              MO Center=  9.4D-03, -4.5D-18,  1.3D-06, r^2= 5.4D-01
   Bfn.  Coefficient  Atom+Function         Bfn.  Coefficient  Atom+Function  
  ----- ------------  ---------------      ----- ------------  ---------------
     2      0.835616  1 O  s                  1     -0.231949  1 O  s          
     6      0.156088  2 H  s                  7      0.156087  3 H  s          

 Vector    3  Occ=2.000000D+00  E=-5.724160D-01
              MO Center=  9.1D-02, -1.1D-25,  1.0D-07, r^2= 8.0D-01
   Bfn.  Coefficient  Atom+Function         Bfn.  Coefficient  Atom+Function  
  ----- ------------  ---------------      ----- ------------  ---------------
     5      0.639073  1 O  pz                 6      0.454720  2 H  s          
     7     -0.454719  3 H  s          

 Vector    4  Occ=2.000000D+00  E=-4.895302D-01
              MO Center= -1.9D-01, -7.1D-18, -2.0D-07, r^2= 6.9D-01
   Bfn.  Coefficient  Atom+Function         Bfn.  Coefficient  Atom+Function  
  ----- ------------  ---------------      ----- ------------  ---------------
     3      0.716090  1 O  px                 2     -0.578435  1 O  s          
     6      0.304660  2 H  s                  7      0.304663  3 H  s          

 Vector    5  Occ=2.000000D+00  E=-3.995565D-01
              MO Center= -2.1D-01,  6.3D-18,  8.0D-07, r^2= 4.2D-01
   Bfn.  Coefficient  Atom+Function         Bfn.  Coefficient  Atom+Function  
  ----- ------------  ---------------      ----- ------------  ---------------
     4      1.000000  1 O  py         

 Vector    6  Occ=0.000000D+00  E= 6.018380D-01
              MO Center=  3.6D-01,  5.3D-18, -1.3D-05, r^2= 1.0D+00
   Bfn.  Coefficient  Atom+Function         Bfn.  Coefficient  Atom+Function  
  ----- ------------  ---------------      ----- ------------  ---------------
     3      0.825619  1 O  px                 2      0.801374  1 O  s          
     6     -0.753295  2 H  s                  7     -0.753317  3 H  s          

 Vector    7  Occ=0.000000D+00  E= 6.751904D-01
              MO Center=  2.3D-01, -1.2D-24,  1.4D-05, r^2= 9.9D-01
   Bfn.  Coefficient  Atom+Function         Bfn.  Coefficient  Atom+Function  
  ----- ------------  ---------------      ----- ------------  ---------------
     5      0.922918  1 O  pz                 6     -0.845445  2 H  s          
     7      0.845423  3 H  s          


 center of mass
 --------------
 x =  -0.23853616 y =  -0.00000000 z =   0.00000126

 moments of inertia (a.u.)
 ------------------
           3.285922273660          -0.000000000000           0.000006358649
          -0.000000000000           6.507987402258          -0.000000000000
           0.000006358649          -0.000000000000           3.222065128598

  Mulliken analysis of the total density
  --------------------------------------

    Atom       Charge   Shell Charges
 -----------   ------   -------------------------------------------------------
    1 O    8     8.33   2.00  1.87  4.46
    2 H    1     0.84   0.84
    3 H    1     0.84   0.84

       Multipole analysis of the density wrt the origin
       ------------------------------------------------

     L   x y z        total         open         nuclear
     -   - - -        -----         ----         -------
     0   0 0 0     -0.000000      0.000000     10.000000

     1   1 0 0      0.707017      0.000000     -1.203587
     1   0 1 0      0.000000      0.000000     -0.000000
     1   0 0 1      0.000000      0.000000      0.000011

     2   2 0 0     -3.991490      0.000000      3.024810
     2   1 1 0      0.000000      0.000000      0.000000
     2   1 0 1      0.000000      0.000000     -0.000007
     2   0 2 0     -4.553420      0.000000      0.000000
     2   0 1 1     -0.000000      0.000000      0.000000
     2   0 0 2     -3.620087      0.000000      3.260410

 Line search: 
     step= 1.00 grad=-2.9D-02 hess= 8.3D-03 energy=    -74.957364 mode=downhill
 new step= 1.73                   predicted energy=    -74.961842

          --------
          Step   4
          --------


                         Geometry "geometry" -> "geometry"
                         ---------------------------------

 Output coordinates in a.u. (scale by  1.000000000 to convert to a.u.)

  No.       Tag          Charge          X              Y              Z
 ---- ---------------- ---------- -------------- -------------- --------------
    1 O                    8.0000    -0.37498665    -0.00000000     0.00000671
    2 H                    1.0000     0.94609220     0.00000000     1.37504678
    3 H                    1.0000     0.94609845     0.00000000    -1.37505349

      Atomic Mass 
      ----------- 

      O                 15.994910
      H                  1.007825


 Effective nuclear repulsion energy (a.u.)       8.7544898509

            Nuclear Dipole moment (a.u.) 
            ----------------------------
        X                 Y               Z
 ---------------- ---------------- ----------------
    -1.1077025350    -0.0000000000     0.0000469403

                                 NWChem SCF Module
                                 -----------------


                water TDC calculation number 12 in STO-3G basis set



  ao basis        = "ao basis"
  functions       =     7
  atoms           =     3
  closed shells   =     5
  open shells     =     0
  charge          =   0.00
  wavefunction    = RHF 
  input vectors   = ./water_TDC_12.movecs
  output vectors  = ./water_TDC_12.movecs
  use symmetry    = F
  symmetry adapt  = F


 Summary of "ao basis" -> "ao basis" (cartesian)
 ------------------------------------------------------------------------------
       Tag                 Description            Shells   Functions and Types
 ---------------- ------------------------------  ------  ---------------------
 O                           STO-3G                  3        5   2s1p
 H                           STO-3G                  1        1   1s



 Forming initial guess at       0.5s


 Loading old vectors from job with title :

water TDC calculation number 12 in STO-3G basis set


 Starting SCF solution at       0.5s



 ----------------------------------------------
         Quadratically convergent ROHF

 Convergence threshold     :          1.000E-04
 Maximum no. of iterations :           30
 Final Fock-matrix accuracy:          1.000E-07
 ----------------------------------------------


              iter       energy          gnorm     gmax       time
             ----- ------------------- --------- --------- --------
                 1      -74.9625841298  3.99D-02  2.97D-02      0.4
                 2      -74.9626610672  2.45D-04  2.19D-04      0.4
                 3      -74.9626610729  5.29D-06  5.06D-06      0.4


       Final RHF  results 
       ------------------ 

         Total SCF energy =    -74.962661072866
      One-electron energy =   -121.518063451123
      Two-electron energy =     37.800912527344
 Nuclear repulsion energy =      8.754489850913

        Time for solution =      0.0s


             Final eigenvalues
             -----------------

              1      
    1  -20.2617
    2   -1.2558
    3   -0.5699
    4   -0.4746
    5   -0.3961
    6    0.5727
    7    0.6528

                       ROHF Final Molecular Orbital Analysis
                       -------------------------------------

 Vector    2  Occ=2.000000D+00  E=-1.255843D+00
              MO Center= -2.5D-03, -5.1D-18,  6.4D-06, r^2= 5.4D-01
   Bfn.  Coefficient  Atom+Function         Bfn.  Coefficient  Atom+Function  
  ----- ------------  ---------------      ----- ------------  ---------------
     2      0.849558  1 O  s                  1     -0.233992  1 O  s          
     6      0.153344  2 H  s                  7      0.153340  3 H  s          

 Vector    3  Occ=2.000000D+00  E=-5.699001D-01
              MO Center=  1.0D-01, -5.6D-25,  5.8D-07, r^2= 8.4D-01
   Bfn.  Coefficient  Atom+Function         Bfn.  Coefficient  Atom+Function  
  ----- ------------  ---------------      ----- ------------  ---------------
     5      0.627752  1 O  pz                 6      0.453156  2 H  s          
     7     -0.453152  3 H  s          

 Vector    4  Occ=2.000000D+00  E=-4.746040D-01
              MO Center= -1.8D-01, -6.6D-18, -2.0D-06, r^2= 7.0D-01
   Bfn.  Coefficient  Atom+Function         Bfn.  Coefficient  Atom+Function  
  ----- ------------  ---------------      ----- ------------  ---------------
     3      0.727599  1 O  px                 2     -0.550297  1 O  s          
     6      0.309951  2 H  s                  7      0.309963  3 H  s          

 Vector    5  Occ=2.000000D+00  E=-3.961150D-01
              MO Center= -2.0D-01,  6.1D-18,  3.5D-06, r^2= 4.2D-01
   Bfn.  Coefficient  Atom+Function         Bfn.  Coefficient  Atom+Function  
  ----- ------------  ---------------      ----- ------------  ---------------
     4      1.000000  1 O  py         

 Vector    6  Occ=0.000000D+00  E= 5.727013D-01
              MO Center=  3.6D-01,  5.6D-18, -6.3D-05, r^2= 1.0D+00
   Bfn.  Coefficient  Atom+Function         Bfn.  Coefficient  Atom+Function  
  ----- ------------  ---------------      ----- ------------  ---------------
     3      0.798340  1 O  px                 2      0.770440  1 O  s          
     6     -0.744297  2 H  s                  7     -0.744390  3 H  s          

 Vector    7  Occ=0.000000D+00  E= 6.527823D-01
              MO Center=  2.2D-01, -5.9D-24,  6.6D-05, r^2= 1.0D+00
   Bfn.  Coefficient  Atom+Function         Bfn.  Coefficient  Atom+Function  
  ----- ------------  ---------------      ----- ------------  ---------------
     5      0.926212  1 O  pz                 6     -0.810266  2 H  s          
     7      0.810167  3 H  s          


 center of mass
 --------------
 x =  -0.22713789 y =  -0.00000000 z =   0.00000558

 moments of inertia (a.u.)
 ------------------
           3.811116184442          -0.000000000000           0.000032456465
          -0.000000000000           6.935247204667          -0.000000000000
           0.000032456465          -0.000000000000           3.124131020225

  Mulliken analysis of the total density
  --------------------------------------

    Atom       Charge   Shell Charges
 -----------   ------   -------------------------------------------------------
    1 O    8     8.31   2.00  1.87  4.44
    2 H    1     0.85   0.85
    3 H    1     0.85   0.85

       Multipole analysis of the density wrt the origin
       ------------------------------------------------

     L   x y z        total         open         nuclear
     -   - - -        -----         ----         -------
     0   0 0 0     -0.000000      0.000000     10.000000

     1   1 0 0      0.677905      0.000000     -1.107703
     1   0 1 0      0.000000      0.000000     -0.000000
     1   0 0 1      0.000001      0.000000      0.000047

     2   2 0 0     -4.029470      0.000000      2.915113
     2   1 1 0      0.000000      0.000000      0.000000
     2   1 0 1      0.000000      0.000000     -0.000035
     2   0 2 0     -4.569754      0.000000      0.000000
     2   0 1 1     -0.000000      0.000000      0.000000
     2   0 0 2     -3.504852      0.000000      3.781526

                              NWChem Gradients Module
                              -----------------------


                water TDC calculation number 12 in STO-3G basis set


  wavefunction    =   RHF     



                         RHF ENERGY GRADIENTS

    atom               coordinates                        gradient
                 x          y          z           x          y          z
   1 O      -0.374987  -0.000000   0.000007   -0.052799   0.000000   0.000009
   2 H       0.946092   0.000000   1.375047    0.026396  -0.000000  -0.002156
   3 H       0.946098   0.000000  -1.375053    0.026403  -0.000000   0.002147

                 ----------------------------------------
                 |  Time  |  1-e(secs)   |  2-e(secs)   |
                 ----------------------------------------
                 |  CPU   |       0.00   |       0.00   |
                 ----------------------------------------
                 |  WALL  |       0.00   |       0.00   |
                 ----------------------------------------

  Step       Energy      Delta E   Gmax     Grms     Xrms     Xmax   Walltime
  ---- ---------------- -------- -------- -------- -------- -------- --------
@    4     -74.96266107 -2.6D-02  0.05280  0.02158  0.11023  0.23215      0.5
                                                                    

                                 NWChem SCF Module
                                 -----------------


                water TDC calculation number 12 in STO-3G basis set



  ao basis        = "ao basis"
  functions       =     7
  atoms           =     3
  closed shells   =     5
  open shells     =     0
  charge          =   0.00
  wavefunction    = RHF 
  input vectors   = ./water_TDC_12.movecs
  output vectors  = ./water_TDC_12.movecs
  use symmetry    = F
  symmetry adapt  = F


 Summary of "ao basis" -> "ao basis" (cartesian)
 ------------------------------------------------------------------------------
       Tag                 Description            Shells   Functions and Types
 ---------------- ------------------------------  ------  ---------------------
 O                           STO-3G                  3        5   2s1p
 H                           STO-3G                  1        1   1s



 Forming initial guess at       0.6s


 Loading old vectors from job with title :

water TDC calculation number 12 in STO-3G basis set


 Starting SCF solution at       0.6s



 ----------------------------------------------
         Quadratically convergent ROHF

 Convergence threshold     :          1.000E-04
[...]
             ----- ------------------- --------- --------- --------
                 1      -74.9658527323  2.16D-02  1.63D-02      0.6
                 2      -74.9658997024  6.94D-05  5.65D-05      0.6


       Final RHF  results 
       ------------------ 

         Total SCF energy =    -74.965899702425
      One-electron energy =   -121.847167940001
      Two-electron energy =     37.967415529247
 Nuclear repulsion energy =      8.913852708328

        Time for solution =      0.0s


             Final eigenvalues
             -----------------

              1      
    1  -20.2515
    2   -1.2579
    3   -0.5943
    4   -0.4598
    5   -0.3927
    6    0.5826
    7    0.6936

                       ROHF Final Molecular Orbital Analysis
                       -------------------------------------

 Vector    2  Occ=2.000000D+00  E=-1.257941D+00
              MO Center=  3.3D-02, -5.2D-18,  3.8D-06, r^2= 5.4D-01
   Bfn.  Coefficient  Atom+Function         Bfn.  Coefficient  Atom+Function  
  ----- ------------  ---------------      ----- ------------  ---------------
     2      0.844132  1 O  s                  1     -0.233728  1 O  s          
     6      0.155673  2 H  s                  7      0.155670  3 H  s          

 Vector    3  Occ=2.000000D+00  E=-5.942655D-01
              MO Center=  1.3D-01, -2.9D-25, -5.9D-07, r^2= 8.5D-01
   Bfn.  Coefficient  Atom+Function         Bfn.  Coefficient  Atom+Function  
  ----- ------------  ---------------      ----- ------------  ---------------
     5      0.612714  1 O  pz                 6      0.449176  2 H  s          
     7     -0.449175  3 H  s          

 Vector    4  Occ=2.000000D+00  E=-4.598310D-01
              MO Center= -1.7D-01, -6.9D-18, -2.8D-07, r^2= 6.6D-01
   Bfn.  Coefficient  Atom+Function         Bfn.  Coefficient  Atom+Function  
  ----- ------------  ---------------      ----- ------------  ---------------
     3      0.756037  1 O  px                 2     -0.538501  1 O  s          
     6      0.294799  2 H  s                  7      0.294804  3 H  s          

 Vector    5  Occ=2.000000D+00  E=-3.926577D-01
              MO Center= -1.6D-01,  6.1D-18,  2.0D-06, r^2= 4.2D-01
   Bfn.  Coefficient  Atom+Function         Bfn.  Coefficient  Atom+Function  
  ----- ------------  ---------------      ----- ------------  ---------------
     4      1.000000  1 O  py         

 Vector    6  Occ=0.000000D+00  E= 5.825695D-01
              MO Center=  3.7D-01,  5.9D-18, -2.7D-05, r^2= 1.1D+00
   Bfn.  Coefficient  Atom+Function         Bfn.  Coefficient  Atom+Function  
  ----- ------------  ---------------      ----- ------------  ---------------
     2      0.821471  1 O  s                  6     -0.769691  2 H  s          
     7     -0.769728  3 H  s                  3      0.763628  1 O  px         

 Vector    7  Occ=0.000000D+00  E= 6.935920D-01
              MO Center=  2.2D-01, -2.5D-24,  2.9D-05, r^2= 1.0D+00
   Bfn.  Coefficient  Atom+Function         Bfn.  Coefficient  Atom+Function  
  ----- ------------  ---------------      ----- ------------  ---------------
     5      0.960222  1 O  pz                 6     -0.815354  2 H  s          
     7      0.815311  3 H  s          


 center of mass
 --------------
 x =  -0.16024473 y =  -0.00000000 z =   0.00000318

 moments of inertia (a.u.)
 ------------------
           4.129769056955          -0.000000000000           0.000015865199
          -0.000000000000           6.709615762456          -0.000000000000
           0.000015865199          -0.000000000000           2.579846705501

  Mulliken analysis of the total density
  --------------------------------------

    Atom       Charge   Shell Charges
 -----------   ------   -------------------------------------------------------
    1 O    8     8.33   2.00  1.85  4.48
    2 H    1     0.83   0.83
    3 H    1     0.83   0.83

       Multipole analysis of the density wrt the origin
       ------------------------------------------------

     L   x y z        total         open         nuclear
     -   - - -        -----         ----         -------
     0   0 0 0     -0.000000      0.000000     10.000000

     1   1 0 0      0.672914      0.000000     -0.544986
     1   0 1 0      0.000000      0.000000     -0.000000
     1   0 0 1      0.000000      0.000000      0.000027

     2   2 0 0     -4.038458      0.000000      2.335621
     2   1 1 0      0.000000      0.000000      0.000000
     2   1 0 1      0.000000      0.000000     -0.000016
     2   0 2 0     -4.553771      0.000000      0.000000
     2   0 1 1     -0.000000      0.000000      0.000000
     2   0 0 2     -3.335157      0.000000      4.097705

                              NWChem Gradients Module
                              -----------------------


                water TDC calculation number 12 in STO-3G basis set


  wavefunction    =   RHF     



                         RHF ENERGY GRADIENTS

    atom               coordinates                        gradient
                 x          y          z           x          y          z
   1 O      -0.294599  -0.000000   0.000004    0.001148   0.000000   0.000005
   2 H       0.905900   0.000000   1.431379   -0.000576  -0.000000  -0.000783
   3 H       0.905902   0.000000  -1.431383   -0.000572  -0.000000   0.000778

                 ----------------------------------------
                 |  Time  |  1-e(secs)   |  2-e(secs)   |
                 ----------------------------------------
                 |  CPU   |       0.00   |       0.00   |
                 ----------------------------------------
                 |  WALL  |       0.00   |       0.00   |
                 ----------------------------------------

  Step       Energy      Delta E   Gmax     Grms     Xrms     Xmax   Walltime
  ---- ---------------- -------- -------- -------- -------- -------- --------
@    6     -74.96589970 -1.0D-03  0.00115  0.00060  0.01502  0.02942      0.7
                                                                    

                                 NWChem SCF Module
                                 -----------------


                water TDC calculation number 12 in STO-3G basis set



  ao basis        = "ao basis"
  functions       =     7
  atoms           =     3
  closed shells   =     5
  open shells     =     0
  charge          =   0.00
  wavefunction    = RHF 
  input vectors   = ./water_TDC_12.movecs
  output vectors  = ./water_TDC_12.movecs
  use symmetry    = F
  symmetry adapt  = F


 Summary of "ao basis" -> "ao basis" (cartesian)
 ------------------------------------------------------------------------------
       Tag                 Description            Shells   Functions and Types
 ---------------- ------------------------------  ------  ---------------------
 O                           STO-3G                  3        5   2s1p
 H                           STO-3G                  1        1   1s



 Forming initial guess at       0.7s


 Loading old vectors from job with title :

water TDC calculation number 12 in STO-3G basis set


 Starting SCF solution at       0.7s



 ----------------------------------------------
         Quadratically convergent ROHF

 Convergence threshold     :          1.000E-04
 Maximum no. of iterations :           30
 Final Fock-matrix accuracy:          1.000E-07
 ----------------------------------------------


              iter       energy          gnorm     gmax       time
             ----- ------------------- --------- --------- --------
                 1      -74.9659010362  1.41D-03  9.26D-04      0.6
                 2      -74.9659011871  5.37D-06  4.14D-06      0.6


       Final RHF  results 
       ------------------ 

         Total SCF energy =    -74.965901187082
      One-electron energy =   -121.833328213387
      Two-electron energy =     37.961382273120
 Nuclear repulsion energy =      8.906044753186

        Time for solution =      0.0s


             Final eigenvalues
             -----------------

              1      
    1  -20.2516
    2   -1.2575
    3   -0.5938
    4   -0.4597
    5   -0.3926
    6    0.5817
    7    0.6926

                       ROHF Final Molecular Orbital Analysis
                       -------------------------------------

 Vector    2  Occ=2.000000D+00  E=-1.257527D+00
              MO Center=  3.2D-02, -5.2D-18, -4.4D-07, r^2= 5.4D-01
   Bfn.  Coefficient  Atom+Function         Bfn.  Coefficient  Atom+Function  
  ----- ------------  ---------------      ----- ------------  ---------------
     2      0.844468  1 O  s                  1     -0.233768  1 O  s          
     6      0.155589  2 H  s                  7      0.155590  3 H  s          

 Vector    3  Occ=2.000000D+00  E=-5.938288D-01
              MO Center=  1.3D-01,  3.8D-26,  1.2D-07, r^2= 8.5D-01
   Bfn.  Coefficient  Atom+Function         Bfn.  Coefficient  Atom+Function  
  ----- ------------  ---------------      ----- ------------  ---------------
     5      0.612697  1 O  pz                 6      0.449225  2 H  s          
     7     -0.449225  3 H  s          

 Vector    4  Occ=2.000000D+00  E=-4.597262D-01
              MO Center= -1.7D-01, -6.9D-18,  1.4D-07, r^2= 6.6D-01
   Bfn.  Coefficient  Atom+Function         Bfn.  Coefficient  Atom+Function  
  ----- ------------  ---------------      ----- ------------  ---------------
     3      0.755864  1 O  px                 2     -0.538150  1 O  s          
     6      0.295123  2 H  s                  7      0.295122  3 H  s          

 Vector    5  Occ=2.000000D+00  E=-3.926155D-01
              MO Center= -1.6D-01,  6.1D-18, -1.6D-07, r^2= 4.2D-01
   Bfn.  Coefficient  Atom+Function         Bfn.  Coefficient  Atom+Function  
  ----- ------------  ---------------      ----- ------------  ---------------
     4      1.000000  1 O  py         

 Vector    6  Occ=0.000000D+00  E= 5.817484D-01
              MO Center=  3.7D-01,  6.0D-18,  3.5D-06, r^2= 1.1D+00
   Bfn.  Coefficient  Atom+Function         Bfn.  Coefficient  Atom+Function  
  ----- ------------  ---------------      ----- ------------  ---------------
     2      0.820062  1 O  s                  6     -0.769132  2 H  s          
     7     -0.769128  3 H  s                  3      0.763552  1 O  px         

 Vector    7  Occ=0.000000D+00  E= 6.926162D-01
              MO Center=  2.2D-01,  3.2D-25, -3.7D-06, r^2= 1.0D+00
   Bfn.  Coefficient  Atom+Function         Bfn.  Coefficient  Atom+Function  
  ----- ------------  ---------------      ----- ------------  ---------------
     5      0.959775  1 O  pz                 6     -0.814604  2 H  s          
     7      0.814610  3 H  s          


 center of mass
 --------------
 x =  -0.16083500 y =  -0.00000000 z =  -0.00000026

 moments of inertia (a.u.)
 ------------------
           4.136961089187          -0.000000000000          -0.000002464609
          -0.000000000000           6.721382972053          -0.000000000000
          -0.000002464609          -0.000000000000           2.584421882866

  Mulliken analysis of the total density
  --------------------------------------

    Atom       Charge   Shell Charges
 -----------   ------   -------------------------------------------------------
    1 O    8     8.33   2.00  1.85  4.48
    2 H    1     0.83   0.83
    3 H    1     0.83   0.83

       Multipole analysis of the density wrt the origin
       ------------------------------------------------

     L   x y z        total         open         nuclear
     -   - - -        -----         ----         -------
     0   0 0 0     -0.000000      0.000000     10.000000

     1   1 0 0      0.672427      0.000000     -0.549951
     1   0 1 0      0.000000      0.000000     -0.000000
     1   0 0 1     -0.000000      0.000000     -0.000002

     2   2 0 0     -4.039080      0.000000      2.340254
     2   1 1 0      0.000000      0.000000      0.000000
     2   1 0 1      0.000000      0.000000      0.000002
     2   0 2 0     -4.554311      0.000000      0.000000
     2   0 1 1     -0.000000      0.000000      0.000000
     2   0 0 2     -3.334929      0.000000      4.104841

 Line search: 
     step= 1.00 grad=-3.2D-06 hess= 1.7D-06 energy=    -74.965901 mode=accept  
 new step= 1.00                   predicted energy=    -74.965901

          --------
          Step   7
          --------


                         Geometry "geometry" -> "geometry"
                         ---------------------------------

 Output coordinates in a.u. (scale by  1.000000000 to convert to a.u.)

  No.       Tag          Charge          X              Y              Z
 ---- ---------------- ---------- -------------- -------------- --------------
    1 O                    8.0000    -0.29530790    -0.00000000    -0.00000031
    2 H                    1.0000     0.90625646     0.00000000     1.43262724
    3 H                    1.0000     0.90625544     0.00000000    -1.43262693

      Atomic Mass 
      ----------- 

      O                 15.994910
      H                  1.007825


 Effective nuclear repulsion energy (a.u.)       8.9060447532

            Nuclear Dipole moment (a.u.) 
            ----------------------------
        X                 Y               Z
 ---------------- ---------------- ----------------
    -0.5499512677    -0.0000000000    -0.0000021636

                                 NWChem SCF Module
                                 -----------------


                water TDC calculation number 12 in STO-3G basis set



  ao basis        = "ao basis"
  functions       =     7
  atoms           =     3
  closed shells   =     5
  open shells     =     0
  charge          =   0.00
  wavefunction    = RHF 
  input vectors   = ./water_TDC_12.movecs
  output vectors  = ./water_TDC_12.movecs
  use symmetry    = F
  symmetry adapt  = F


 Summary of "ao basis" -> "ao basis" (cartesian)
 ------------------------------------------------------------------------------
       Tag                 Description            Shells   Functions and Types
 ---------------- ------------------------------  ------  ---------------------
 O                           STO-3G                  3        5   2s1p
 H                           STO-3G                  1        1   1s



  The SCF is already converged 

         Total SCF energy =    -74.965901187082

                              NWChem Gradients Module
                              -----------------------


                water TDC calculation number 12 in STO-3G basis set


  wavefunction    =   RHF     



                         RHF ENERGY GRADIENTS

    atom               coordinates                        gradient
                 x          y          z           x          y          z
   1 O      -0.295308  -0.000000  -0.000000   -0.000072   0.000000  -0.000001
   2 H       0.906256   0.000000   1.432627    0.000036  -0.000000   0.000045
   3 H       0.906255   0.000000  -1.432627    0.000036  -0.000000  -0.000045

                 ----------------------------------------
                 |  Time  |  1-e(secs)   |  2-e(secs)   |
                 ----------------------------------------
                 |  CPU   |       0.00   |       0.00   |
                 ----------------------------------------
                 |  WALL  |       0.00   |       0.00   |
                 ----------------------------------------

  Step       Energy      Delta E   Gmax     Grms     Xrms     Xmax   Walltime
  ---- ---------------- -------- -------- -------- -------- -------- --------
@    7     -74.96590119 -1.5D-06  0.00007  0.00004  0.00065  0.00125      0.7
                                     ok       ok       ok       ok  


      ----------------------
      Optimization converged
      ----------------------


  Step       Energy      Delta E   Gmax     Grms     Xrms     Xmax   Walltime
  ---- ---------------- -------- -------- -------- -------- -------- --------
@    7     -74.96590119 -1.5D-06  0.00007  0.00004  0.00065  0.00125      0.7
                                     ok       ok       ok       ok  



                         Geometry "geometry" -> "geometry"
                         ---------------------------------

 Output coordinates in a.u. (scale by  1.000000000 to convert to a.u.)

  No.       Tag          Charge          X              Y              Z
 ---- ---------------- ---------- -------------- -------------- --------------
    1 O                    8.0000    -0.29530790    -0.00000000    -0.00000031
    2 H                    1.0000     0.90625646     0.00000000     1.43262724
    3 H                    1.0000     0.90625544     0.00000000    -1.43262693

      Atomic Mass 
      ----------- 

      O                 15.994910
      H                  1.007825


 Effective nuclear repulsion energy (a.u.)       8.9060447532

            Nuclear Dipole moment (a.u.) 
            ----------------------------
        X                 Y               Z
 ---------------- ---------------- ----------------
    -0.5499512677    -0.0000000000    -0.0000021636

 ==============================================================================
                                internuclear distances
 ------------------------------------------------------------------------------
       center one      |      center two      | atomic units |       a.u.
 ------------------------------------------------------------------------------
    2 H                |   1 O                |     1.86981  |     1.86981
    3 H                |   1 O                |     1.86981  |     1.86981
 ------------------------------------------------------------------------------
                         number of included internuclear distances:          2
 ==============================================================================



 ==============================================================================
                                 internuclear angles
 ------------------------------------------------------------------------------
        center 1       |       center 2       |       center 3       |  degrees
 ------------------------------------------------------------------------------
    2 H                |   1 O                |   3 H                |   100.03
 ------------------------------------------------------------------------------
                            number of included internuclear angles:          1
 ==============================================================================




 Task  times  cpu:        0.6s     wall:        0.7s


                                NWChem Input Module
                                -------------------


 ------------------------------------------------------------------------
 usage: task <string theory>                                                                                                                      911
 ------------------------------------------------------------------------
 ------------------------------------------------------------------------
  current input line : 
    25: task dft optimizetddft
 ------------------------------------------------------------------------
 ------------------------------------------------------------------------
 There is an error in the input file
 ------------------------------------------------------------------------
 For more information see the NWChem manual at http://www.nwchem-sw.org/index.php/NWChem_Documentation


 For further details see manual section:                                                                                                                                                                                                                                                                
0:0:usage: task <string theory>:: 911
(rank:0 hostname:g25 pid:25766):ARMCI DASSERT fail. ../../ga-5-4/armci/src/common/armci.c:ARMCI_Error():208 cond:0
