 argument  1 = /scratch/owengray/benzene_TDC_7/benzene_TDC_7.nw



============================== echo of input deck ==============================
echo

start benzene_TDC_7
title "benzene TDC calculation number 7 in STO-3G basis set"
scratch_dir /scratch/owengray/benzene_TDC_7/
geometry units au noautoz nocenter
symmetry c1
	C	0.0	1.40272	0.0
	H	0.0	2.49029	0.0
	C	-1.21479	0.70136	0.0
	H	-2.15666	1.24515	0.0
	C	-1.21479	-0.70136	0.0
	H	-2.15666	-1.24515	0.0
	C	0.0	-1.40272	0.0
	H	0.0	-2.49029	0.0
	C	1.21479	-0.70136	0.0
	H	2.15666	-1.24515	0.0
	C	1.21479	0.70136	0.0
	H	2.15666	1.24515	0.0
end
basis
	C library STO-3G
	H library STO-3G
end
charge 0
scf
	rohf
	vectors output benzene_TDC_7.movecs
end
task scf optimize
dft
	xc bhlyp
end
task dft optimize
tddft
	cis
	print debug
	notriplet
	civecs
	grad
		root 1
	end
end
task tddft energy
dplot
	root 1
	limitxyz
		-3.15666	3.15666	100
		-3.49029	3.49029	100
		-1.0	1.0	100
		gaussian
		output benzene_TDC_7_root1.cube
end
task dplot
================================================================================


                                         
                                         


              Northwest Computational Chemistry Package (NWChem) 6.6
              ------------------------------------------------------


                    Environmental Molecular Sciences Laboratory
                       Pacific Northwest National Laboratory
                                Richland, WA 99352

                              Copyright (c) 1994-2015
                       Pacific Northwest National Laboratory
                            Battelle Memorial Institute

             NWChem is an open-source computational chemistry package
                        distributed under the terms of the
                      Educational Community License (ECL) 2.0
             A copy of the license is included with this distribution
                              in the LICENSE.TXT file

                                  ACKNOWLEDGMENT
                                  --------------

            This software and its documentation were developed at the
            EMSL at Pacific Northwest National Laboratory, a multiprogram
            national laboratory, operated for the U.S. Department of Energy
            by Battelle under Contract Number DE-AC05-76RL01830. Support
            for this work was provided by the Department of Energy Office
            of Biological and Environmental Research, Office of Basic
            Energy Sciences, and the Office of Advanced Scientific Computing.


           Job information
           ---------------

    hostname        = g24
    program         = /cm/shared/NWChem/bin/nwchem
    date            = Thu Jun 30 13:47:25 2016

    compiled        = Wed_Jan_27_15:20:39_2016
    source          = /cm/shared/nwchem-6.6
    nwchem branch   = 6.6
    nwchem revision = 27746
    ga revision     = 10594
    input           = /scratch/owengray/benzene_TDC_7/benzene_TDC_7.nw
    prefix          = benzene_TDC_7.
    data base       = ./benzene_TDC_7.db
    status          = startup
    nproc           =       20
    time left       =     -1s



           Memory information
           ------------------

    heap     =  210617852 doubles =   1606.9 Mbytes
    stack    =  210617857 doubles =   1606.9 Mbytes
    global   =  421235712 doubles =   3213.8 Mbytes (distinct from heap & stack)
    total    =  842471421 doubles =   6427.5 Mbytes
    verify   = yes
    hardfail = no 


           Directory information
           ---------------------

  0 permanent = .
  0 scratch   = /scratch/owengray/benzene_TDC_7/




                                NWChem Input Module
                                -------------------


               benzene TDC calculation number 7 in STO-3G basis set
               ----------------------------------------------------
 Turning off AUTOSYM since
 SYMMETRY directive was detected!



                             Geometry "geometry" -> ""
                             -------------------------

 Output coordinates in a.u. (scale by  1.000000000 to convert to a.u.)

  No.       Tag          Charge          X              Y              Z
 ---- ---------------- ---------- -------------- -------------- --------------
    1 C                    6.0000     0.00000000     1.40272000     0.00000000
    2 H                    1.0000     0.00000000     2.49029000     0.00000000
    3 C                    6.0000    -1.21479000     0.70136000     0.00000000
    4 H                    1.0000    -2.15666000     1.24515000     0.00000000
    5 C                    6.0000    -1.21479000    -0.70136000     0.00000000
    6 H                    1.0000    -2.15666000    -1.24515000     0.00000000
    7 C                    6.0000     0.00000000    -1.40272000     0.00000000
    8 H                    1.0000     0.00000000    -2.49029000     0.00000000
    9 C                    6.0000     1.21479000    -0.70136000     0.00000000
   10 H                    1.0000     2.15666000    -1.24515000     0.00000000
   11 C                    6.0000     1.21479000     0.70136000     0.00000000
   12 H                    1.0000     2.15666000     1.24515000     0.00000000

      Atomic Mass 
      ----------- 

      C                 12.000000
      H                  1.007825


 Effective nuclear repulsion energy (a.u.)     382.5182380328

            Nuclear Dipole moment (a.u.) 
            ----------------------------
        X                 Y               Z
 ---------------- ---------------- ----------------
    -0.0000000000    -0.0000000000     0.0000000000


            XYZ format geometry
            -------------------
    12
 geometry
 C                     0.00000000     0.74228751     0.00000000
 H                     0.00000000     1.31780481     0.00000000
 C                    -0.64283923     0.37114376     0.00000000
 H                    -1.14125541     0.65890505     0.00000000
 C                    -0.64283923    -0.37114376     0.00000000
 H                    -1.14125541    -0.65890505     0.00000000
 C                     0.00000000    -0.74228751     0.00000000
 H                     0.00000000    -1.31780481     0.00000000
 C                     0.64283923    -0.37114376     0.00000000
 H                     1.14125541    -0.65890505     0.00000000
 C                     0.64283923     0.37114376     0.00000000
 H                     1.14125541     0.65890505     0.00000000

 ==============================================================================
                                internuclear distances
 ------------------------------------------------------------------------------
       center one      |      center two      | atomic units |       a.u.
 ------------------------------------------------------------------------------
    2 H                |   1 C                |     1.08757  |     1.08757
    3 C                |   1 C                |     1.40272  |     1.40272
    3 C                |   2 H                |     2.16240  |     2.16240
    4 H                |   1 C                |     2.16241  |     2.16241
    4 H                |   3 C                |     1.08758  |     1.08758
    5 C                |   1 C                |     2.42958  |     2.42958
    5 C                |   3 C                |     1.40272  |     1.40272
    5 C                |   4 H                |     2.16241  |     2.16241
    6 H                |   3 C                |     2.16241  |     2.16241
    6 H                |   5 C                |     1.08758  |     1.08758
    7 C                |   1 C                |     2.80544  |     2.80544
    7 C                |   3 C                |     2.42958  |     2.42958
    7 C                |   5 C                |     1.40272  |     1.40272
    7 C                |   6 H                |     2.16241  |     2.16241
    8 H                |   5 C                |     2.16240  |     2.16240
    8 H                |   7 C                |     1.08757  |     1.08757
    9 C                |   1 C                |     2.42958  |     2.42958
    9 C                |   3 C                |     2.80544  |     2.80544
    9 C                |   5 C                |     2.42958  |     2.42958
    9 C                |   7 C                |     1.40272  |     1.40272
    9 C                |   8 H                |     2.16240  |     2.16240
   10 H                |   7 C                |     2.16241  |     2.16241
   10 H                |   9 C                |     1.08758  |     1.08758
   11 C                |   1 C                |     1.40272  |     1.40272
   11 C                |   2 H                |     2.16240  |     2.16240
   11 C                |   3 C                |     2.42958  |     2.42958
   11 C                |   5 C                |     2.80544  |     2.80544
   11 C                |   7 C                |     2.42958  |     2.42958
   11 C                |   9 C                |     1.40272  |     1.40272
   11 C                |  10 H                |     2.16241  |     2.16241
   12 H                |   1 C                |     2.16241  |     2.16241
   12 H                |   9 C                |     2.16241  |     2.16241
   12 H                |  11 C                |     1.08758  |     1.08758
 ------------------------------------------------------------------------------
                         number of included internuclear distances:         33
 ==============================================================================



 ==============================================================================
                                 internuclear angles
 ------------------------------------------------------------------------------
        center 1       |       center 2       |       center 3       |  degrees
 ------------------------------------------------------------------------------
    2 H                |   1 C                |   3 C                |   120.00
    2 H                |   1 C                |   4 H                |    94.18
    2 H                |   1 C                |   5 C                |   150.00
    2 H                |   1 C                |   7 C                |   180.00
    2 H                |   1 C                |   9 C                |   150.00
    2 H                |   1 C                |  11 C                |   120.00
    2 H                |   1 C                |  12 H                |    94.18
    1 C                |   3 C                |   4 H                |   120.00
    1 C                |   3 C                |   5 C                |   120.00
    1 C                |   3 C                |   7 C                |    90.00
    3 C                |   1 C                |   9 C                |    90.00
    3 C                |   1 C                |  11 C                |   120.00
    3 C                |   1 C                |  12 H                |   145.82
    1 C                |   4 H                |   5 C                |    68.36
    4 H                |   1 C                |   7 C                |    85.82
    4 H                |   1 C                |   9 C                |   115.82
    4 H                |   1 C                |  11 C                |   145.82
    4 H                |   1 C                |  12 H                |   171.64
    1 C                |   5 C                |   7 C                |    90.00
    5 C                |   1 C                |   9 C                |    60.00
    5 C                |   1 C                |  11 C                |    90.00
    5 C                |   1 C                |  12 H                |   115.82
    1 C                |   9 C                |   7 C                |    90.00
    1 C                |  11 C                |   7 C                |    90.00
    7 C                |   1 C                |  12 H                |    85.82
    1 C                |  11 C                |   9 C                |   120.00
    1 C                |  12 H                |   9 C                |    68.36
    1 C                |  11 C                |  12 H                |   120.00
    2 H                |   1 C                |   3 C                |   120.00
    2 H                |   1 C                |  11 C                |   120.00
    3 C                |   2 H                |  11 C                |    68.36
    3 C                |   1 C                |   2 H                |   120.00
    1 C                |   3 C                |   4 H                |   120.00
    1 C                |   3 C                |   5 C                |   120.00
    1 C                |   3 C                |   6 H                |   145.82
    1 C                |   3 C                |   7 C                |    90.00
    3 C                |   1 C                |   9 C                |    90.00
    3 C                |   1 C                |  11 C                |   120.00
    2 H                |   3 C                |   4 H                |    94.18
    2 H                |   3 C                |   5 C                |   145.82
    2 H                |   3 C                |   6 H                |   171.64
    2 H                |   3 C                |   7 C                |   115.82
    2 H                |   3 C                |   9 C                |    85.82
    3 C                |   2 H                |  11 C                |    68.36
    4 H                |   3 C                |   5 C                |   120.00
    4 H                |   3 C                |   6 H                |    94.18
    4 H                |   3 C                |   7 C                |   150.00
    4 H                |   3 C                |   9 C                |   180.00
    4 H                |   3 C                |  11 C                |   150.00
    3 C                |   5 C                |   6 H                |   120.00
    3 C                |   5 C                |   7 C                |   120.00
    3 C                |   5 C                |   9 C                |    90.00
    5 C                |   3 C                |  11 C                |    90.00
    3 C                |   6 H                |   7 C                |    68.36
    6 H                |   3 C                |   9 C                |    85.82
    6 H                |   3 C                |  11 C                |   115.82
    3 C                |   7 C                |   9 C                |    90.00
    3 C                |   7 C                |  11 C                |    60.00
    3 C                |  11 C                |   9 C                |    90.00
    4 H                |   3 C                |   1 C                |   120.00
    1 C                |   4 H                |   5 C                |    68.36
    4 H                |   3 C                |   5 C                |   120.00
    5 C                |   3 C                |   1 C                |   120.00
    5 C                |   4 H                |   1 C                |    68.36
    1 C                |   5 C                |   6 H                |   150.00
    1 C                |   5 C                |   7 C                |    90.00
    1 C                |   5 C                |   8 H                |   115.82
    5 C                |   1 C                |   9 C                |    60.00
    5 C                |   1 C                |  11 C                |    90.00
    5 C                |   3 C                |   4 H                |   120.00
    3 C                |   5 C                |   6 H                |   120.00
    3 C                |   5 C                |   7 C                |   120.00
    3 C                |   5 C                |   8 H                |   145.82
    3 C                |   5 C                |   9 C                |    90.00
    5 C                |   3 C                |  11 C                |    90.00
    4 H                |   5 C                |   6 H                |    94.18
    4 H                |   5 C                |   7 C                |   145.82
    4 H                |   5 C                |   8 H                |   171.64
    4 H                |   5 C                |   9 C                |   115.82
    4 H                |   5 C                |  11 C                |    85.82
    6 H                |   5 C                |   7 C                |   120.00
    6 H                |   5 C                |   8 H                |    94.18
    6 H                |   5 C                |   9 C                |   150.00
    6 H                |   5 C                |  11 C                |   180.00
    5 C                |   7 C                |   8 H                |   120.00
    5 C                |   7 C                |   9 C                |   120.00
    5 C                |   7 C                |  11 C                |    90.00
    5 C                |   8 H                |   9 C                |    68.36
    8 H                |   5 C                |  11 C                |    85.82
    5 C                |   9 C                |  11 C                |    90.00
    6 H                |   5 C                |   3 C                |   120.00
    3 C                |   6 H                |   7 C                |    68.36
    6 H                |   5 C                |   7 C                |   120.00
    7 C                |   3 C                |   1 C                |    90.00
    7 C                |   5 C                |   1 C                |    90.00
    1 C                |   7 C                |   6 H                |    85.82
    1 C                |   7 C                |   8 H                |   180.00
    7 C                |   9 C                |   1 C                |    90.00
    1 C                |   7 C                |  10 H                |    85.82
    7 C                |  11 C                |   1 C                |    90.00
    7 C                |   5 C                |   3 C                |   120.00
    7 C                |   6 H                |   3 C                |    68.36
    3 C                |   7 C                |   8 H                |   150.00
    3 C                |   7 C                |   9 C                |    90.00
    3 C                |   7 C                |  10 H                |   115.82
    3 C                |   7 C                |  11 C                |    60.00
    7 C                |   5 C                |   6 H                |   120.00
    5 C                |   7 C                |   8 H                |   120.00
    5 C                |   7 C                |   9 C                |   120.00
    5 C                |   7 C                |  10 H                |   145.82
    5 C                |   7 C                |  11 C                |    90.00
    6 H                |   7 C                |   8 H                |    94.18
    6 H                |   7 C                |   9 C                |   145.82
    6 H                |   7 C                |  10 H                |   171.64
    6 H                |   7 C                |  11 C                |   115.82
    8 H                |   7 C                |   9 C                |   120.00
    8 H                |   7 C                |  10 H                |    94.18
    8 H                |   7 C                |  11 C                |   150.00
    7 C                |   9 C                |  10 H                |   120.00
    7 C                |   9 C                |  11 C                |   120.00
    7 C                |  10 H                |  11 C                |    68.36
    8 H                |   7 C                |   5 C                |   120.00
    5 C                |   8 H                |   9 C                |    68.36
    8 H                |   7 C                |   9 C                |   120.00
    9 C                |   1 C                |   3 C                |    90.00
    9 C                |   1 C                |   5 C                |    60.00
    1 C                |   9 C                |   7 C                |    90.00
    1 C                |   9 C                |   8 H                |   115.82
    1 C                |   9 C                |  10 H                |   150.00
    9 C                |  11 C                |   1 C                |   120.00
    9 C                |  12 H                |   1 C                |    68.36
    9 C                |   5 C                |   3 C                |    90.00
    9 C                |   7 C                |   3 C                |    90.00
    3 C                |   9 C                |   8 H                |    85.82
    3 C                |   9 C                |  10 H                |   180.00
    9 C                |  11 C                |   3 C                |    90.00
    3 C                |   9 C                |  12 H                |    85.82
    9 C                |   7 C                |   5 C                |   120.00
    9 C                |   8 H                |   5 C                |    68.36
    5 C                |   9 C                |  10 H                |   150.00
    5 C                |   9 C                |  11 C                |    90.00
    5 C                |   9 C                |  12 H                |   115.82
    9 C                |   7 C                |   8 H                |   120.00
    7 C                |   9 C                |  10 H                |   120.00
    7 C                |   9 C                |  11 C                |   120.00
    7 C                |   9 C                |  12 H                |   145.82
    8 H                |   9 C                |  10 H                |    94.18
    8 H                |   9 C                |  11 C                |   145.82
    8 H                |   9 C                |  12 H                |   171.64
   10 H                |   9 C                |  11 C                |   120.00
   10 H                |   9 C                |  12 H                |    94.18
    9 C                |  11 C                |  12 H                |   120.00
   10 H                |   9 C                |   7 C                |   120.00
    7 C                |  10 H                |  11 C                |    68.36
   10 H                |   9 C                |  11 C                |   120.00
   11 C                |   1 C                |   2 H                |   120.00
   11 C                |   1 C                |   3 C                |   120.00
   11 C                |   1 C                |   5 C                |    90.00
    1 C                |  11 C                |   7 C                |    90.00
    1 C                |  11 C                |   9 C                |   120.00
    1 C                |  11 C                |  10 H                |   145.82
    1 C                |  11 C                |  12 H                |   120.00
   11 C                |   2 H                |   3 C                |    68.36
    2 H                |  11 C                |   5 C                |    85.82
    2 H                |  11 C                |   7 C                |   115.82
    2 H                |  11 C                |   9 C                |   145.82
    2 H                |  11 C                |  10 H                |   171.64
    2 H                |  11 C                |  12 H                |    94.18
   11 C                |   3 C                |   5 C                |    90.00
   11 C                |   7 C                |   3 C                |    60.00
    3 C                |  11 C                |   9 C                |    90.00
    3 C                |  11 C                |  10 H                |   115.82
    3 C                |  11 C                |  12 H                |   150.00
   11 C                |   7 C                |   5 C                |    90.00
   11 C                |   9 C                |   5 C                |    90.00
    5 C                |  11 C                |  10 H                |    85.82
    5 C                |  11 C                |  12 H                |   180.00
   11 C                |   9 C                |   7 C                |   120.00
   11 C                |  10 H                |   7 C                |    68.36
    7 C                |  11 C                |  12 H                |   150.00
   11 C                |   9 C                |  10 H                |   120.00
    9 C                |  11 C                |  12 H                |   120.00
   10 H                |  11 C                |  12 H                |    94.18
    1 C                |  12 H                |   9 C                |    68.36
   12 H                |  11 C                |   1 C                |   120.00
   12 H                |  11 C                |   9 C                |   120.00
 ------------------------------------------------------------------------------
                            number of included internuclear angles:        186
 ==============================================================================



  library name resolved from: environment
  library file name is: </cm/shared/NWChem/data/libraries/>
  
                      Basis "ao basis" -> "" (cartesian)
                      -----
  C (Carbon)
  ----------
            Exponent  Coefficients 
       -------------- ---------------------------------------------------------
  1 S  7.16168370E+01  0.154329
  1 S  1.30450960E+01  0.535328
  1 S  3.53051220E+00  0.444635

  2 S  2.94124940E+00 -0.099967
  2 S  6.83483100E-01  0.399513
  2 S  2.22289900E-01  0.700115

  3 P  2.94124940E+00  0.155916
  3 P  6.83483100E-01  0.607684
  3 P  2.22289900E-01  0.391957

  H (Hydrogen)
  ------------
            Exponent  Coefficients 
       -------------- ---------------------------------------------------------
  1 S  3.42525091E+00  0.154329
  1 S  6.23913730E-01  0.535328
  1 S  1.68855400E-01  0.444635



 Summary of "ao basis" -> "" (cartesian)
 ------------------------------------------------------------------------------
       Tag                 Description            Shells   Functions and Types
 ---------------- ------------------------------  ------  ---------------------
 C                           STO-3G                  3        5   2s1p
 H                           STO-3G                  1        1   1s




                           NWChem Geometry Optimization
                           ----------------------------




               benzene TDC calculation number 7 in STO-3G basis set


 maximum gradient threshold         (gmax) =   0.000450
 rms gradient threshold             (grms) =   0.000300
 maximum cartesian step threshold   (xmax) =   0.001800
 rms cartesian step threshold       (xrms) =   0.001200
 fixed trust radius                (trust) =   0.300000
 maximum step size to saddle      (sadstp) =   0.100000
 energy precision                  (eprec) =   1.0D-07
 maximum number of steps          (nptopt) =   20
 initial hessian option           (inhess) =    0
 line search option               (linopt) =    1
 hessian update option            (modupd) =    1
 saddle point option              (modsad) =    0
 initial eigen-mode to follow     (moddir) =    0
 initial variable to follow       (vardir) =    0
 follow first negative mode     (firstneg) =    T
 apply conjugacy                    (opcg) =    F
 source of zmatrix                         =           


          -------------------
          Energy Minimization
          -------------------


 Using diagonal initial Hessian 

          --------
          Step   0
          --------


                         Geometry "geometry" -> "geometry"
                         ---------------------------------

 Output coordinates in a.u. (scale by  1.000000000 to convert to a.u.)

  No.       Tag          Charge          X              Y              Z
 ---- ---------------- ---------- -------------- -------------- --------------
    1 C                    6.0000     0.00000000     1.40272000     0.00000000
    2 H                    1.0000     0.00000000     2.49029000     0.00000000
    3 C                    6.0000    -1.21479000     0.70136000     0.00000000
    4 H                    1.0000    -2.15666000     1.24515000     0.00000000
    5 C                    6.0000    -1.21479000    -0.70136000     0.00000000
    6 H                    1.0000    -2.15666000    -1.24515000     0.00000000
    7 C                    6.0000     0.00000000    -1.40272000     0.00000000
    8 H                    1.0000     0.00000000    -2.49029000     0.00000000
    9 C                    6.0000     1.21479000    -0.70136000     0.00000000
   10 H                    1.0000     2.15666000    -1.24515000     0.00000000
   11 C                    6.0000     1.21479000     0.70136000     0.00000000
   12 H                    1.0000     2.15666000     1.24515000     0.00000000

      Atomic Mass 
      ----------- 

      C                 12.000000
      H                  1.007825


 Effective nuclear repulsion energy (a.u.)     382.5182380328

            Nuclear Dipole moment (a.u.) 
            ----------------------------
        X                 Y               Z
 ---------------- ---------------- ----------------
    -0.0000000000    -0.0000000000     0.0000000000

                                 NWChem SCF Module
                                 -----------------


               benzene TDC calculation number 7 in STO-3G basis set



  ao basis        = "ao basis"
  functions       =    36
  atoms           =    12
  closed shells   =    21
  open shells     =     0
  charge          =   0.00
  wavefunction    = RHF 
  input vectors   = atomic
  output vectors  = ./benzene_TDC_7.movecs
  use symmetry    = F
  symmetry adapt  = F


 Summary of "ao basis" -> "ao basis" (cartesian)
 ------------------------------------------------------------------------------
       Tag                 Description            Shells   Functions and Types
 ---------------- ------------------------------  ------  ---------------------
 C                           STO-3G                  3        5   2s1p
 H                           STO-3G                  1        1   1s



 Forming initial guess at       0.1s


      Superposition of Atomic Density Guess
      -------------------------------------

 Sum of atomic energies:        -225.86895105

      Non-variational initial energy
      ------------------------------

 Total energy =    -247.573954
 1-e energy   =   -1033.330404
 2-e energy   =     403.238211
 HOMO         =      -0.279560
 LUMO         =       0.218720


 Starting SCF solution at       0.1s



 ----------------------------------------------
         Quadratically convergent ROHF

 Convergence threshold     :          1.000E-04
 Maximum no. of iterations :           30
 Final Fock-matrix accuracy:          1.000E-07
 ----------------------------------------------


              iter       energy          gnorm     gmax       time
             ----- ------------------- --------- --------- --------
                 1     -212.5671417542  4.94D-01  2.83D-01      0.1
                 2     -212.5771564530  6.30D-02  2.82D-02      0.2
                 3     -212.5773368810  2.41D-03  9.30D-04      0.2
                 4     -212.5773371129  6.60D-06  2.65D-06      0.3


       Final RHF  results 
       ------------------ 

         Total SCF energy =   -212.577337112856
      One-electron energy =  -1019.228324183129
      Two-electron energy =    424.132749037469
 Nuclear repulsion energy =    382.518238032804

        Time for solution =      0.3s


             Final eigenvalues
             -----------------

              1      
    1  -11.7357
    2  -11.6743
    3  -11.6743
    4  -11.5375
    5  -11.5375
    6  -11.4716
    7   -2.1506
    8   -1.3497
    9   -1.3497
   10   -1.3450
   11   -1.2553
   12   -1.1588
   13   -1.1588
   14   -1.0678
   15   -0.9000
   16   -0.9000
   17   -0.7713
   18   -0.7713
   19   -0.6500
   20   -0.5112
   21   -0.5112
   22    0.4008
   23    0.4008
   24    1.0393
   25    1.2784
   26    1.3929
   27    1.3929
   28    2.2629
   29    2.2629
   30    2.5354
   31    2.5355

                       ROHF Final Molecular Orbital Analysis
                       -------------------------------------

 Vector    8  Occ=2.000000D+00  E=-1.349681D+00
              MO Center= -1.9D-14, -4.4D-14, -9.1D-16, r^2= 1.6D+00
   Bfn.  Coefficient  Atom+Function         Bfn.  Coefficient  Atom+Function  
  ----- ------------  ---------------      ----- ------------  ---------------
     1      0.231269   1 C  s                19     -0.231269   7 C  s         
    10     -0.218631   3 C  py               16     -0.218631   5 C  py        
    28     -0.218631   9 C  py               34     -0.218631  11 C  py        
     2     -0.161134   1 C  s                20      0.161134   7 C  s         

 Vector    9  Occ=2.000000D+00  E=-1.349679D+00
              MO Center= -9.6D-13, -9.4D-16, -7.1D-16, r^2= 1.6D+00
   Bfn.  Coefficient  Atom+Function         Bfn.  Coefficient  Atom+Function  
  ----- ------------  ---------------      ----- ------------  ---------------
     3      0.291541   1 C  px               21      0.291541   7 C  px        
     7      0.200285   3 C  s                13      0.200285   5 C  s         
    25     -0.200285   9 C  s                31     -0.200285  11 C  s         

 Vector   10  Occ=2.000000D+00  E=-1.344974D+00
              MO Center=  9.6D-13,  5.3D-14,  1.6D-15, r^2= 2.0D+00
   Bfn.  Coefficient  Atom+Function         Bfn.  Coefficient  Atom+Function  
  ----- ------------  ---------------      ----- ------------  ---------------
     2      0.226672   1 C  s                 8      0.226677   3 C  s         
    14      0.226677   5 C  s                20      0.226672   7 C  s         
    26      0.226677   9 C  s                32      0.226677  11 C  s         
     4      0.202956   1 C  py               22     -0.202956   7 C  py        
     9     -0.175762   3 C  px               15     -0.175762   5 C  px        

 Vector   11  Occ=2.000000D+00  E=-1.255345D+00
              MO Center= -5.8D-15, -3.9D-15, -1.2D-15, r^2= 1.2D+00
   Bfn.  Coefficient  Atom+Function         Bfn.  Coefficient  Atom+Function  
  ----- ------------  ---------------      ----- ------------  ---------------
     5      0.239685   1 C  pz               11      0.239684   3 C  pz        
    17      0.239684   5 C  pz               23      0.239685   7 C  pz        
    29      0.239684   9 C  pz               35      0.239684  11 C  pz        

 Vector   12  Occ=2.000000D+00  E=-1.158789D+00
              MO Center=  2.1D-14,  4.0D-14,  2.4D-16, r^2= 1.6D+00
   Bfn.  Coefficient  Atom+Function         Bfn.  Coefficient  Atom+Function  
  ----- ------------  ---------------      ----- ------------  ---------------
     3      0.472770   1 C  px               21     -0.472770   7 C  px        
    10     -0.251120   3 C  py               16     -0.251120   5 C  py        
    28      0.251120   9 C  py               34      0.251120  11 C  py        
     8      0.175627   3 C  s                14     -0.175627   5 C  s         
    26      0.175627   9 C  s                32     -0.175627  11 C  s         

 Vector   13  Occ=2.000000D+00  E=-1.158789D+00
              MO Center= -3.8D-14, -1.8D-14, -2.9D-18, r^2= 1.6D+00
   Bfn.  Coefficient  Atom+Function         Bfn.  Coefficient  Atom+Function  
  ----- ------------  ---------------      ----- ------------  ---------------
    10      0.327784   3 C  py               16     -0.327784   5 C  py        
    28     -0.327784   9 C  py               34      0.327784  11 C  py        
     9      0.251121   3 C  px               15      0.251121   5 C  px        
    27     -0.251121   9 C  px               33     -0.251121  11 C  px        
     2     -0.202798   1 C  s                20     -0.202798   7 C  s         

 Vector   14  Occ=2.000000D+00  E=-1.067812D+00
              MO Center=  5.6D-14, -3.2D-14, -2.2D-21, r^2= 1.3D+00
   Bfn.  Coefficient  Atom+Function         Bfn.  Coefficient  Atom+Function  
  ----- ------------  ---------------      ----- ------------  ---------------
     3      0.438328   1 C  px               21      0.438328   7 C  px        
    10     -0.379605   3 C  py               16      0.379605   5 C  py        
    28     -0.379605   9 C  py               34      0.379605  11 C  py        
     9     -0.219162   3 C  px               15     -0.219162   5 C  px        
    27     -0.219162   9 C  px               33     -0.219162  11 C  px        

 Vector   15  Occ=2.000000D+00  E=-8.999810D-01
              MO Center=  1.2D-14,  9.1D-15,  9.2D-16, r^2= 1.0D+00
   Bfn.  Coefficient  Atom+Function         Bfn.  Coefficient  Atom+Function  
  ----- ------------  ---------------      ----- ------------  ---------------
     4      0.735407   1 C  py               22      0.735407   7 C  py        
     9     -0.408069   3 C  px               15      0.408069   5 C  px        
    27     -0.408069   9 C  px               33      0.408069  11 C  px        
     2     -0.188455   1 C  s                20      0.188455   7 C  s         
     1      0.167985   1 C  s                19     -0.167985   7 C  s         

 Vector   16  Occ=2.000000D+00  E=-8.999784D-01
              MO Center=  5.9D-15, -8.6D-15,  2.5D-16, r^2= 1.0D+00
   Bfn.  Coefficient  Atom+Function         Bfn.  Coefficient  Atom+Function  
  ----- ------------  ---------------      ----- ------------  ---------------
     9      0.499807   3 C  px               15      0.499807   5 C  px        
    27      0.499807   9 C  px               33      0.499807  11 C  px        
    10     -0.408069   3 C  py               16      0.408069   5 C  py        
    28     -0.408069   9 C  py               34      0.408069  11 C  py        
     3     -0.206995   1 C  px               21     -0.206995   7 C  px        

 Vector   17  Occ=2.000000D+00  E=-7.712592D-01
              MO Center=  1.5D-15,  4.7D-15, -2.8D-16, r^2= 1.3D+00
   Bfn.  Coefficient  Atom+Function         Bfn.  Coefficient  Atom+Function  
  ----- ------------  ---------------      ----- ------------  ---------------
     5      0.537252   1 C  pz               23     -0.537252   7 C  pz        
    11      0.268626   3 C  pz               17     -0.268626   5 C  pz        
    29     -0.268626   9 C  pz               35      0.268626  11 C  pz        

 Vector   18  Occ=2.000000D+00  E=-7.712576D-01
              MO Center=  9.7D-15, -6.8D-15,  2.2D-17, r^2= 1.3D+00
   Bfn.  Coefficient  Atom+Function         Bfn.  Coefficient  Atom+Function  
  ----- ------------  ---------------      ----- ------------  ---------------
    11      0.465274   3 C  pz               17      0.465274   5 C  pz        
    29     -0.465274   9 C  pz               35     -0.465274  11 C  pz        

 Vector   19  Occ=2.000000D+00  E=-6.500482D-01
              MO Center=  1.0D-15,  5.5D-14,  1.4D-16, r^2= 2.1D+00
   Bfn.  Coefficient  Atom+Function         Bfn.  Coefficient  Atom+Function  
  ----- ------------  ---------------      ----- ------------  ---------------
     4      0.317768   1 C  py               22      0.317768   7 C  py        
     6      0.300205   2 H  s                12     -0.300205   4 H  s         
    18      0.300205   6 H  s                24     -0.300205   8 H  s         
    30      0.300205  10 H  s                36     -0.300205  12 H  s         
     9      0.275198   3 C  px               15     -0.275198   5 C  px        

 Vector   20  Occ=2.000000D+00  E=-5.111865D-01
              MO Center= -1.2D-14, -4.5D-14,  5.2D-21, r^2= 1.7D+00
   Bfn.  Coefficient  Atom+Function         Bfn.  Coefficient  Atom+Function  
  ----- ------------  ---------------      ----- ------------  ---------------
     4      0.618110   1 C  py               22     -0.618110   7 C  py        
    10     -0.580079   3 C  py               16      0.580079   5 C  py        
    28      0.580079   9 C  py               34     -0.580079  11 C  py        
     6      0.299617   2 H  s                24      0.299617   8 H  s         

 Vector   21  Occ=2.000000D+00  E=-5.111854D-01
              MO Center= -1.3D-14,  1.6D-15, -1.6D-17, r^2= 1.7D+00
   Bfn.  Coefficient  Atom+Function         Bfn.  Coefficient  Atom+Function  
  ----- ------------  ---------------      ----- ------------  ---------------
     9     -0.605432   3 C  px               15      0.605432   5 C  px        
    27      0.605432   9 C  px               33     -0.605432  11 C  px        
     3      0.567403   1 C  px               21     -0.567403   7 C  px        
    12      0.259476   4 H  s                18     -0.259476   6 H  s         
    30      0.259476  10 H  s                36     -0.259476  12 H  s         

 Vector   22  Occ=0.000000D+00  E= 4.008200D-01
              MO Center= -3.9D-15, -1.3D-14,  4.0D-18, r^2= 1.3D+00
   Bfn.  Coefficient  Atom+Function         Bfn.  Coefficient  Atom+Function  
  ----- ------------  ---------------      ----- ------------  ---------------
     5      1.015917   1 C  pz               23      1.015917   7 C  pz        
    11     -0.507958   3 C  pz               17     -0.507958   5 C  pz        
    29     -0.507958   9 C  pz               35     -0.507958  11 C  pz        

 Vector   23  Occ=0.000000D+00  E= 4.008204D-01
              MO Center=  1.1D-14,  7.2D-15, -9.6D-17, r^2= 1.3D+00
   Bfn.  Coefficient  Atom+Function         Bfn.  Coefficient  Atom+Function  
  ----- ------------  ---------------      ----- ------------  ---------------
    11      0.879809   3 C  pz               17     -0.879809   5 C  pz        
    29      0.879809   9 C  pz               35     -0.879809  11 C  pz        

 Vector   24  Occ=0.000000D+00  E= 1.039307D+00
              MO Center=  2.1D-13, -1.2D-13,  6.2D-17, r^2= 2.6D+00
   Bfn.  Coefficient  Atom+Function         Bfn.  Coefficient  Atom+Function  
  ----- ------------  ---------------      ----- ------------  ---------------
     6      1.129035   2 H  s                12      1.129038   4 H  s         
    18      1.129038   6 H  s                24      1.129035   8 H  s         
    30      1.129038  10 H  s                36      1.129038  12 H  s         
     2     -0.907553   1 C  s                 8     -0.907554   3 C  s         
    14     -0.907554   5 C  s                20     -0.907553   7 C  s         

 Vector   25  Occ=0.000000D+00  E= 1.278366D+00
              MO Center= -1.2D-14,  1.2D-14,  2.0D-16, r^2= 1.2D+00
   Bfn.  Coefficient  Atom+Function         Bfn.  Coefficient  Atom+Function  
  ----- ------------  ---------------      ----- ------------  ---------------
     5      1.078720   1 C  pz               11     -1.078720   3 C  pz        
    17      1.078720   5 C  pz               23     -1.078720   7 C  pz        
    29      1.078720   9 C  pz               35     -1.078720  11 C  pz        

 Vector   26  Occ=0.000000D+00  E= 1.392885D+00
              MO Center= -1.6D-13, -4.8D-14,  6.0D-18, r^2= 2.2D+00
   Bfn.  Coefficient  Atom+Function         Bfn.  Coefficient  Atom+Function  
  ----- ------------  ---------------      ----- ------------  ---------------
    12      1.401066   4 H  s                18      1.401066   6 H  s         
    30     -1.401066  10 H  s                36     -1.401066  12 H  s         
     9      0.986301   3 C  px               15      0.986301   5 C  px        
    27      0.986301   9 C  px               33      0.986301  11 C  px        
     3      0.704811   1 C  px               21      0.704811   7 C  px        

 Vector   27  Occ=0.000000D+00  E= 1.392893D+00
              MO Center=  4.3D-14,  3.1D-14,  1.6D-17, r^2= 2.2D+00
   Bfn.  Coefficient  Atom+Function         Bfn.  Coefficient  Atom+Function  
  ----- ------------  ---------------      ----- ------------  ---------------
     6      1.617819   2 H  s                24     -1.617819   8 H  s         
     4     -1.080133   1 C  py               22     -1.080133   7 C  py        
    12      0.808914   4 H  s                18     -0.808914   6 H  s         
    30     -0.808914  10 H  s                36      0.808914  12 H  s         
    10     -0.798651   3 C  py               16     -0.798651   5 C  py        

 Vector   28  Occ=0.000000D+00  E= 2.262907D+00
              MO Center= -2.4D-14,  3.3D-14,  4.2D-17, r^2= 1.4D+00
   Bfn.  Coefficient  Atom+Function         Bfn.  Coefficient  Atom+Function  
  ----- ------------  ---------------      ----- ------------  ---------------
     8      3.137796   3 C  s                14      3.137796   5 C  s         
    26     -3.137796   9 C  s                32     -3.137796  11 C  s         
     3      2.395797   1 C  px               21      2.395797   7 C  px        
    10      1.090063   3 C  py               16     -1.090063   5 C  py        
    28      1.090063   9 C  py               34     -1.090063  11 C  py        

 Vector   29  Occ=0.000000D+00  E= 2.262908D+00
              MO Center=  1.6D-13, -4.6D-13,  5.1D-17, r^2= 1.4D+00
   Bfn.  Coefficient  Atom+Function         Bfn.  Coefficient  Atom+Function  
  ----- ------------  ---------------      ----- ------------  ---------------
     2      3.623201   1 C  s                20     -3.623201   7 C  s         
     8      1.811626   3 C  s                14     -1.811625   5 C  s         
    26     -1.811626   9 C  s                32      1.811625  11 C  s         
    10     -1.766441   3 C  py               16     -1.766441   5 C  py        
    28     -1.766441   9 C  py               34     -1.766441  11 C  py        

 Vector   30  Occ=0.000000D+00  E= 2.535448D+00
              MO Center=  3.0D-13, -1.4D-13,  6.0D-17, r^2= 1.9D+00
   Bfn.  Coefficient  Atom+Function         Bfn.  Coefficient  Atom+Function  
  ----- ------------  ---------------      ----- ------------  ---------------
    12      1.918572   4 H  s                18     -1.918572   6 H  s         
    30      1.918572  10 H  s                36     -1.918572  12 H  s         
     9      1.483836   3 C  px               15     -1.483836   5 C  px        
    27     -1.483836   9 C  px               33      1.483836  11 C  px        
     8     -1.086423   3 C  s                14      1.086423   5 C  s         

 Vector   31  Occ=0.000000D+00  E= 2.535467D+00
              MO Center= -4.2D-14,  2.5D-13,  6.2D-18, r^2= 1.9D+00
   Bfn.  Coefficient  Atom+Function         Bfn.  Coefficient  Atom+Function  
  ----- ------------  ---------------      ----- ------------  ---------------
     6      2.215406   2 H  s                24      2.215406   8 H  s         
     4     -1.909567   1 C  py               22      1.909567   7 C  py        
     2     -1.254421   1 C  s                20     -1.254421   7 C  s         
    12     -1.107679   4 H  s                18     -1.107679   6 H  s         
    30     -1.107679  10 H  s                36     -1.107679  12 H  s         


 center of mass
 --------------
 x =   0.00000000 y =   0.00000000 z =   0.00000000

 moments of inertia (a.u.)
 ------------------
          89.584706642401          -0.000000000000           0.000000000000
          -0.000000000000          89.584619146930           0.000000000000
           0.000000000000           0.000000000000         179.169325789331

  Mulliken analysis of the total density
  --------------------------------------

    Atom       Charge   Shell Charges
 -----------   ------   -------------------------------------------------------
    1 C    6     6.35   2.00  0.32  4.03
    2 H    1     0.65   0.65
    3 C    6     6.35   2.00  0.32  4.03
    4 H    1     0.65   0.65
    5 C    6     6.35   2.00  0.32  4.03
    6 H    1     0.65   0.65
    7 C    6     6.35   2.00  0.32  4.03
    8 H    1     0.65   0.65
    9 C    6     6.35   2.00  0.32  4.03
   10 H    1     0.65   0.65
   11 C    6     6.35   2.00  0.32  4.03
   12 H    1     0.65   0.65

       Multipole analysis of the density wrt the origin
       ------------------------------------------------

     L   x y z        total         open         nuclear
     -   - - -        -----         ----         -------
     0   0 0 0     -0.000000      0.000000     42.000000

     1   1 0 0     -0.000000      0.000000     -0.000000
     1   0 1 0     -0.000000      0.000000     -0.000000
     1   0 0 1      0.000000      0.000000      0.000000

     2   2 0 0    -23.888491      0.000000     54.021883
     2   1 1 0      0.000000      0.000000      0.000000
     2   1 0 1      0.000000      0.000000      0.000000
     2   0 2 0    -23.888516      0.000000     54.021904
     2   0 1 1     -0.000000      0.000000      0.000000
     2   0 0 2    -21.989478      0.000000      0.000000

                              NWChem Gradients Module
                              -----------------------


               benzene TDC calculation number 7 in STO-3G basis set


  wavefunction    =   RHF     



                         RHF ENERGY GRADIENTS

    atom               coordinates                        gradient
                 x          y          z           x          y          z
   1 C       0.000000   1.402720   0.000000    0.000000  -3.666454   0.000000
   2 H       0.000000   2.490290   0.000000   -0.000000  -2.263869  -0.000000
   3 C      -1.214790   0.701360   0.000000    3.175295  -1.833238  -0.000000
   4 H      -2.156660   1.245150   0.000000    1.960516  -1.131906   0.000000
   5 C      -1.214790  -0.701360   0.000000    3.175295   1.833238  -0.000000
   6 H      -2.156660  -1.245150   0.000000    1.960516   1.131906   0.000000
   7 C       0.000000  -1.402720   0.000000   -0.000000   3.666454   0.000000
   8 H       0.000000  -2.490290   0.000000    0.000000   2.263869  -0.000000
   9 C       1.214790  -0.701360   0.000000   -3.175295   1.833238  -0.000000
  10 H       2.156660  -1.245150   0.000000   -1.960516   1.131906   0.000000
  11 C       1.214790   0.701360   0.000000   -3.175295  -1.833238  -0.000000
  12 H       2.156660   1.245150   0.000000   -1.960516  -1.131906   0.000000

                 ----------------------------------------
                 |  Time  |  1-e(secs)   |  2-e(secs)   |
                 ----------------------------------------
                 |  CPU   |       0.00   |       0.08   |
                 ----------------------------------------
                 |  WALL  |       0.00   |       0.08   |
                 ----------------------------------------

@ Step       Energy      Delta E   Gmax     Grms     Xrms     Xmax   Walltime
@ ---- ---------------- -------- -------- -------- -------- -------- --------
@    0    -212.57733711  0.0D+00  3.66645  1.75917  0.00000  0.00000      0.5
                                                                    

 Restricting large step in mode   19 eval= 1.6D+00 step= 4.5D+00 new= 3.0D-01
 Restricting large step in mode   29 eval= 5.3D+00 step= 1.5D+00 new= 3.0D-01
                                 NWChem SCF Module
                                 -----------------


               benzene TDC calculation number 7 in STO-3G basis set



  ao basis        = "ao basis"
  functions       =    36
  atoms           =    12
  closed shells   =    21
  open shells     =     0
  charge          =   0.00
  wavefunction    = RHF 
  input vectors   = ./benzene_TDC_7.movecs
  output vectors  = ./benzene_TDC_7.movecs
  use symmetry    = F
  symmetry adapt  = F


 Summary of "ao basis" -> "ao basis" (cartesian)
 ------------------------------------------------------------------------------
       Tag                 Description            Shells   Functions and Types
 ---------------- ------------------------------  ------  ---------------------
 C                           STO-3G                  3        5   2s1p
 H                           STO-3G                  1        1   1s



 Forming initial guess at       0.5s


 Loading old vectors from job with title :

benzene TDC calculation number 7 in STO-3G basis set


 Starting SCF solution at       0.5s



 ----------------------------------------------
         Quadratically convergent ROHF

 Convergence threshold     :          1.000E-04
 Maximum no. of iterations :           30
 Final Fock-matrix accuracy:          1.000E-07
 ----------------------------------------------


              iter       energy          gnorm     gmax       time
             ----- ------------------- --------- --------- --------
                 1     -216.0730811503  9.69D-01  3.33D-01      0.5
                 2     -216.1024626141  9.85D-02  3.15D-02      0.5
                 3     -216.1028410723  7.53D-03  3.38D-03      0.6
                 4     -216.1028433572  3.02D-05  1.12D-05      0.7


       Final RHF  results 
       ------------------ 

         Total SCF energy =   -216.102843357223
      One-electron energy =   -972.876069114497
      Two-electron energy =    402.079351391409
 Nuclear repulsion energy =    354.693874365865

        Time for solution =      0.3s


             Final eigenvalues
             -----------------

              1      
    1  -11.5394
    2  -11.5078
    3  -11.5078
    4  -11.4367
    5  -11.4367
    6  -11.4028
    7   -1.9555
    8   -1.3527
    9   -1.3527
   10   -1.2791
   11   -1.1540
   12   -1.1540
   13   -1.1299
   14   -1.0443
   15   -0.9125
   16   -0.9125
   17   -0.7120
   18   -0.7120
   19   -0.7081
   20   -0.5741
   21   -0.5740
   22    0.3427
   23    0.3427
   24    1.0695
   25    1.1559
   26    1.4048
   27    1.4049
   28    2.0813
   29    2.0814
   30    2.1850
   31    2.1850

                       ROHF Final Molecular Orbital Analysis
                       -------------------------------------

 Vector    8  Occ=2.000000D+00  E=-1.352714D+00
              MO Center=  7.5D-06, -7.9D-07, -1.3D-13, r^2= 1.6D+00
   Bfn.  Coefficient  Atom+Function         Bfn.  Coefficient  Atom+Function  
  ----- ------------  ---------------      ----- ------------  ---------------
     3      0.278965   1 C  px               21      0.278967   7 C  px        
     7      0.197848   3 C  s                25     -0.197849   9 C  s         
    13      0.192413   5 C  s                31     -0.192414  11 C  s         
     8     -0.167085   3 C  s                26      0.167086   9 C  s         
    14     -0.162493   5 C  s                32      0.162496  11 C  s         

 Vector    9  Occ=2.000000D+00  E=-1.352706D+00
              MO Center=  7.7D-08, -2.7D-06,  1.3D-13, r^2= 1.6D+00
   Bfn.  Coefficient  Atom+Function         Bfn.  Coefficient  Atom+Function  
  ----- ------------  ---------------      ----- ------------  ---------------
     1      0.225312   1 C  s                19     -0.225312   7 C  s         
    10     -0.198644   3 C  py               28     -0.198643   9 C  py        
    16     -0.191641   5 C  py               34     -0.191641  11 C  py        
     2     -0.190296   1 C  s                20      0.190298   7 C  s         

 Vector   10  Occ=2.000000D+00  E=-1.279142D+00
              MO Center= -7.8D-06,  3.8D-06, -2.0D-16, r^2= 2.2D+00
   Bfn.  Coefficient  Atom+Function         Bfn.  Coefficient  Atom+Function  
  ----- ------------  ---------------      ----- ------------  ---------------
     4      0.214360   1 C  py               22     -0.214360   7 C  py        
     2      0.202070   1 C  s                 8      0.202060   3 C  s         
    14      0.202058   5 C  s                20      0.202070   7 C  s         
    26      0.202054   9 C  s                32      0.202058  11 C  s         
     9     -0.185634   3 C  px               15     -0.185635   5 C  px        

 Vector   11  Occ=2.000000D+00  E=-1.154044D+00
              MO Center= -2.3D-06, -9.6D-07, -4.0D-15, r^2= 1.8D+00
   Bfn.  Coefficient  Atom+Function         Bfn.  Coefficient  Atom+Function  
  ----- ------------  ---------------      ----- ------------  ---------------
     3      0.438515   1 C  px               21     -0.438517   7 C  px        
    16     -0.238567   5 C  py               34      0.238566  11 C  py        
    10     -0.236704   3 C  py               28      0.236704   9 C  py        
    12     -0.152494   4 H  s                18      0.151951   6 H  s         
    30     -0.152493  10 H  s                36      0.151951  12 H  s         

 Vector   12  Occ=2.000000D+00  E=-1.154041D+00
              MO Center=  6.8D-06, -1.3D-06,  4.2D-15, r^2= 1.8D+00
   Bfn.  Coefficient  Atom+Function         Bfn.  Coefficient  Atom+Function  
  ----- ------------  ---------------      ----- ------------  ---------------
    10      0.302039   3 C  py               16     -0.300571   5 C  py        
    28     -0.302041   9 C  py               34      0.300573  11 C  py        
     9      0.237724   3 C  px               15      0.237556   5 C  px        
    27     -0.237724   9 C  px               33     -0.237563  11 C  px        
     6      0.175761   2 H  s                24      0.175760   8 H  s         

 Vector   13  Occ=2.000000D+00  E=-1.129885D+00
              MO Center= -1.7D-07,  2.6D-07,  9.8D-16, r^2= 1.3D+00
   Bfn.  Coefficient  Atom+Function         Bfn.  Coefficient  Atom+Function  
  ----- ------------  ---------------      ----- ------------  ---------------
     5      0.251488   1 C  pz               11      0.251484   3 C  pz        
    17      0.251484   5 C  pz               23      0.251488   7 C  pz        
    29      0.251484   9 C  pz               35      0.251485  11 C  pz        

 Vector   14  Occ=2.000000D+00  E=-1.044292D+00
              MO Center= -8.8D-06,  4.1D-06,  5.3D-17, r^2= 1.4D+00
   Bfn.  Coefficient  Atom+Function         Bfn.  Coefficient  Atom+Function  
  ----- ------------  ---------------      ----- ------------  ---------------
     3      0.405326   1 C  px               21      0.405324   7 C  px        
    10     -0.351011   3 C  py               16      0.351009   5 C  py        
    28     -0.351004   9 C  py               34      0.351006  11 C  py        
     9     -0.202671   3 C  px               15     -0.202673   5 C  px        
    27     -0.202667   9 C  px               33     -0.202672  11 C  px        

 Vector   15  Occ=2.000000D+00  E=-9.125382D-01
              MO Center= -2.1D-06, -3.5D-06, -1.6D-14, r^2= 1.3D+00
   Bfn.  Coefficient  Atom+Function         Bfn.  Coefficient  Atom+Function  
  ----- ------------  ---------------      ----- ------------  ---------------
     9      0.442597   3 C  px               27      0.442599   9 C  px        
    15      0.422425   5 C  px               33      0.422422  11 C  px        
    10     -0.355647   3 C  py               16      0.354363   5 C  py        
    28     -0.355649   9 C  py               34      0.354360  11 C  py        
     3     -0.182339   1 C  px               21     -0.182340   7 C  px        

 Vector   16  Occ=2.000000D+00  E=-9.125073D-01
              MO Center= -2.3D-06,  6.6D-06,  1.7D-14, r^2= 1.3D+00
   Bfn.  Coefficient  Atom+Function         Bfn.  Coefficient  Atom+Function  
  ----- ------------  ---------------      ----- ------------  ---------------
     4      0.637471   1 C  py               22      0.637466   7 C  py        
    15      0.367306   5 C  px               33      0.367303  11 C  px        
     9     -0.342727   3 C  px               27     -0.342729   9 C  px        

 Vector   17  Occ=2.000000D+00  E=-7.119991D-01
              MO Center= -1.2D-06,  4.4D-08,  1.5D-13, r^2= 1.4D+00
   Bfn.  Coefficient  Atom+Function         Bfn.  Coefficient  Atom+Function  
  ----- ------------  ---------------      ----- ------------  ---------------
    17      0.459419   5 C  pz               35     -0.459419  11 C  pz        
    11      0.453898   3 C  pz               29     -0.453898   9 C  pz        

 Vector   18  Occ=2.000000D+00  E=-7.119977D-01
              MO Center= -6.1D-07,  9.4D-07, -1.5D-13, r^2= 1.4D+00
   Bfn.  Coefficient  Atom+Function         Bfn.  Coefficient  Atom+Function  
  ----- ------------  ---------------      ----- ------------  ---------------
     5      0.527305   1 C  pz               23     -0.527305   7 C  pz        
    11      0.268434   3 C  pz               29     -0.268434   9 C  pz        
    17     -0.258872   5 C  pz               35      0.258872  11 C  pz        

 Vector   19  Occ=2.000000D+00  E=-7.080750D-01
              MO Center=  4.2D-06, -2.5D-06,  2.6D-16, r^2= 2.3D+00
   Bfn.  Coefficient  Atom+Function         Bfn.  Coefficient  Atom+Function  
  ----- ------------  ---------------      ----- ------------  ---------------
     4      0.329288   1 C  py               22      0.329289   7 C  py        
     6      0.288986   2 H  s                12     -0.288985   4 H  s         
    18      0.288985   6 H  s                24     -0.288987   8 H  s         
    30      0.288986  10 H  s                36     -0.288986  12 H  s         
     9      0.285135   3 C  px               15     -0.285137   5 C  px        

 Vector   20  Occ=2.000000D+00  E=-5.740524D-01
              MO Center= -2.0D-06,  1.5D-06,  7.4D-16, r^2= 1.8D+00
   Bfn.  Coefficient  Atom+Function         Bfn.  Coefficient  Atom+Function  
  ----- ------------  ---------------      ----- ------------  ---------------
     9     -0.533554   3 C  px               15      0.531618   5 C  px        
    27      0.533551   9 C  px               33     -0.531621  11 C  px        
     3      0.492579   1 C  px               21     -0.492581   7 C  px        
    12      0.264445   4 H  s                30      0.264443  10 H  s         
    18     -0.251972   6 H  s                36     -0.251973  12 H  s         

 Vector   21  Occ=2.000000D+00  E=-5.740294D-01
              MO Center=  2.2D-06, -1.8D-06, -7.0D-16, r^2= 1.8D+00
   Bfn.  Coefficient  Atom+Function         Bfn.  Coefficient  Atom+Function  
  ----- ------------  ---------------      ----- ------------  ---------------
     4      0.545915   1 C  py               22     -0.545922   7 C  py        
    10     -0.504953   3 C  py               16      0.506884   5 C  py        
    28      0.504954   9 C  py               34     -0.506887  11 C  py        
     6      0.298161   2 H  s                24      0.298161   8 H  s         
    18     -0.159883   6 H  s                36     -0.159886  12 H  s         

 Vector   22  Occ=0.000000D+00  E= 3.427110D-01
              MO Center= -1.5D-06,  1.5D-07,  1.5D-13, r^2= 1.4D+00
   Bfn.  Coefficient  Atom+Function         Bfn.  Coefficient  Atom+Function  
  ----- ------------  ---------------      ----- ------------  ---------------
    11      0.810691   3 C  pz               29      0.810689   9 C  pz        
    17     -0.795053   5 C  pz               35     -0.795052  11 C  pz        

 Vector   23  Occ=0.000000D+00  E= 3.427281D-01
              MO Center= -5.6D-07,  9.9D-07, -1.5D-13, r^2= 1.4D+00
   Bfn.  Coefficient  Atom+Function         Bfn.  Coefficient  Atom+Function  
  ----- ------------  ---------------      ----- ------------  ---------------
     5      0.927083   1 C  pz               23      0.927083   7 C  pz        
    17     -0.477088   5 C  pz               35     -0.477089  11 C  pz        
    11     -0.450003   3 C  pz               29     -0.450003   9 C  pz        

 Vector   24  Occ=0.000000D+00  E= 1.069538D+00
              MO Center=  1.1D-07, -1.4D-07,  1.3D-15, r^2= 1.4D+00
   Bfn.  Coefficient  Atom+Function         Bfn.  Coefficient  Atom+Function  
  ----- ------------  ---------------      ----- ------------  ---------------
     5      0.931899   1 C  pz               11     -0.931892   3 C  pz        
    17      0.931893   5 C  pz               23     -0.931900   7 C  pz        
    29      0.931895   9 C  pz               35     -0.931894  11 C  pz        

 Vector   25  Occ=0.000000D+00  E= 1.155936D+00
              MO Center=  1.1D-05, -7.4D-06, -2.9D-17, r^2= 2.7D+00
   Bfn.  Coefficient  Atom+Function         Bfn.  Coefficient  Atom+Function  
  ----- ------------  ---------------      ----- ------------  ---------------
     6      1.215109   2 H  s                12      1.215054   4 H  s         
    18      1.215061   6 H  s                24      1.215120   8 H  s         
    30      1.215069  10 H  s                36      1.215067  12 H  s         
     2     -0.994211   1 C  s                 8     -0.994282   3 C  s         
    14     -0.994281   5 C  s                20     -0.994213   7 C  s         

 Vector   26  Occ=0.000000D+00  E= 1.404832D+00
              MO Center=  1.6D-06,  4.9D-06,  6.4D-16, r^2= 2.1D+00
   Bfn.  Coefficient  Atom+Function         Bfn.  Coefficient  Atom+Function  
  ----- ------------  ---------------      ----- ------------  ---------------
     6      1.470959   2 H  s                24     -1.470950   8 H  s         
     4     -0.999478   1 C  py               10     -0.996283   3 C  py        
    16     -0.996249   5 C  py               22     -0.999476   7 C  py        
    28     -0.996283   9 C  py               34     -0.996251  11 C  py        
    12      0.746787   4 H  s                30     -0.746779  10 H  s         

 Vector   27  Occ=0.000000D+00  E= 1.404876D+00
              MO Center= -6.8D-06, -1.7D-06, -6.6D-16, r^2= 2.1D+00
   Bfn.  Coefficient  Atom+Function         Bfn.  Coefficient  Atom+Function  
  ----- ------------  ---------------      ----- ------------  ---------------
    18      1.280478   6 H  s                36     -1.280461  12 H  s         
    12      1.267391   4 H  s                30     -1.267382  10 H  s         
     3      0.995241   1 C  px                9      0.998405   3 C  px        
    15      0.998436   5 C  px               21      0.995238   7 C  px        
    27      0.998402   9 C  px               33      0.998431  11 C  px        

 Vector   28  Occ=0.000000D+00  E= 2.081288D+00
              MO Center=  9.9D-06,  1.9D-06,  2.6D-15, r^2= 1.7D+00
   Bfn.  Coefficient  Atom+Function         Bfn.  Coefficient  Atom+Function  
  ----- ------------  ---------------      ----- ------------  ---------------
     2      3.065499   1 C  s                20     -3.065548   7 C  s         
    14     -1.574229   5 C  s                32      1.574438  11 C  s         
     8      1.490916   3 C  s                26     -1.491058   9 C  s         
     6     -1.350643   2 H  s                24      1.350613   8 H  s         
    10     -1.335614   3 C  py               28     -1.335657   9 C  py        

 Vector   29  Occ=0.000000D+00  E= 2.081355D+00
              MO Center=  4.6D-06,  1.6D-05, -2.4D-15, r^2= 1.7D+00
   Bfn.  Coefficient  Atom+Function         Bfn.  Coefficient  Atom+Function  
  ----- ------------  ---------------      ----- ------------  ---------------
     8      2.679035   3 C  s                26     -2.678827   9 C  s         
    14      2.630644   5 C  s                32     -2.630962  11 C  s         
     3      1.900524   1 C  px               21      1.900443   7 C  px        
    12     -1.180294   4 H  s                30      1.180307  10 H  s         
    18     -1.159125   6 H  s                36      1.159087  12 H  s         

 Vector   30  Occ=0.000000D+00  E= 2.184980D+00
              MO Center= -1.7D-05, -1.9D-05, -6.4D-14, r^2= 1.0D+00
   Bfn.  Coefficient  Atom+Function         Bfn.  Coefficient  Atom+Function  
  ----- ------------  ---------------      ----- ------------  ---------------
    14      4.609909   5 C  s                32      4.609627  11 C  s         
     8     -3.546756   3 C  s                26     -3.546885   9 C  s         
    10      1.193216   3 C  py               28     -1.193085   9 C  py        
    15      1.106565   5 C  px               33     -1.106596  11 C  px        
     2     -1.063026   1 C  s                20     -1.062904   7 C  s         

 Vector   31  Occ=0.000000D+00  E= 2.184989D+00
              MO Center= -2.7D-06,  5.6D-06,  6.5D-14, r^2= 1.0D+00
   Bfn.  Coefficient  Atom+Function         Bfn.  Coefficient  Atom+Function  
  ----- ------------  ---------------      ----- ------------  ---------------
     2      4.709308   1 C  s                20      4.709261   7 C  s         
     8     -3.275117   3 C  s                26     -3.275083   9 C  s         
     4     -1.493418   1 C  py               22      1.493414   7 C  py        
    14     -1.434086   5 C  s                32     -1.434063  11 C  s         
     9     -1.293845   3 C  px               27      1.293836   9 C  px        


 center of mass
 --------------
 x =  -0.00000104 y =   0.00000060 z =   0.00000000

 moments of inertia (a.u.)
 ------------------
         106.222460542813           0.000074117009           0.000000000000
           0.000074117009         106.224490307638          -0.000000000000
           0.000000000000          -0.000000000000         212.446950850450

  Mulliken analysis of the total density
  --------------------------------------

    Atom       Charge   Shell Charges
 -----------   ------   -------------------------------------------------------
    1 C    6     6.28   2.00  0.38  3.91
    2 H    1     0.72   0.72
    3 C    6     6.28   2.00  0.38  3.91
    4 H    1     0.72   0.72
    5 C    6     6.28   2.00  0.38  3.91
    6 H    1     0.72   0.72
    7 C    6     6.28   2.00  0.38  3.91
    8 H    1     0.72   0.72
    9 C    6     6.28   2.00  0.38  3.91
   10 H    1     0.72   0.72
   11 C    6     6.28   2.00  0.38  3.91
   12 H    1     0.72   0.72

       Multipole analysis of the density wrt the origin
       ------------------------------------------------

     L   x y z        total         open         nuclear
     -   - - -        -----         ----         -------
     0   0 0 0     -0.000000      0.000000     42.000000

     1   1 0 0      0.000005      0.000000     -0.000037
     1   0 1 0     -0.000004      0.000000      0.000021
     1   0 0 1     -0.000000      0.000000      0.000000

     2   2 0 0    -24.798317      0.000000     63.085476
     2   1 1 0     -0.000003      0.000000     -0.000042
     2   1 0 1      0.000000      0.000000     -0.000000
     2   0 2 0    -24.798050      0.000000     63.084591
     2   0 1 1     -0.000000      0.000000      0.000000
     2   0 0 2    -22.459761      0.000000      0.000000

 Line search: 
     step= 1.00 grad=-4.5D+00 hess= 9.5D-01 energy=   -216.102843 mode=downhill
 new step= 2.36                   predicted energy=   -217.858743

          --------
          Step   1
          --------


                         Geometry "geometry" -> "geometry"
                         ---------------------------------

 Output coordinates in a.u. (scale by  1.000000000 to convert to a.u.)

  No.       Tag          Charge          X              Y              Z
 ---- ---------------- ---------- -------------- -------------- --------------
    1 C                    6.0000    -0.00000258     1.73934305    -0.00000000
    2 H                    1.0000     0.00000507     2.72271135     0.00000000
    3 C                    6.0000    -1.50637788     0.86970469     0.00000000
    4 H                    1.0000    -2.35789065     1.36134623    -0.00000000
    5 C                    6.0000    -1.50637754    -0.86970151     0.00000000
    6 H                    1.0000    -2.35789023    -1.36135184    -0.00000000
    7 C                    6.0000    -0.00000212    -1.73933465    -0.00000000
    8 H                    1.0000     0.00000516    -2.72270477     0.00000000
    9 C                    6.0000     1.50637478    -0.86970289     0.00000000
   10 H                    1.0000     2.35789843    -1.36135073    -0.00000000
   11 C                    6.0000     1.50636791     0.86970138     0.00000000
   12 H                    1.0000     2.35788964     1.36133969    -0.00000000

      Atomic Mass 
      ----------- 

      C                 12.000000
      H                  1.007825


 Effective nuclear repulsion energy (a.u.)     324.2637817348

            Nuclear Dipole moment (a.u.) 
            ----------------------------
        X                 Y               Z
 ---------------- ---------------- ----------------
    -0.0000871961     0.0000503426     0.0000000000

                                 NWChem SCF Module
                                 -----------------


               benzene TDC calculation number 7 in STO-3G basis set



  ao basis        = "ao basis"
  functions       =    36
  atoms           =    12
  closed shells   =    21
  open shells     =     0
  charge          =   0.00
  wavefunction    = RHF 
  input vectors   = ./benzene_TDC_7.movecs
  output vectors  = ./benzene_TDC_7.movecs
  use symmetry    = F
  symmetry adapt  = F


 Summary of "ao basis" -> "ao basis" (cartesian)
 ------------------------------------------------------------------------------
       Tag                 Description            Shells   Functions and Types
 ---------------- ------------------------------  ------  ---------------------
 C                           STO-3G                  3        5   2s1p
 H                           STO-3G                  1        1   1s



 Forming initial guess at       0.8s


 Loading old vectors from job with title :

benzene TDC calculation number 7 in STO-3G basis set


 Starting SCF solution at       0.8s



 ----------------------------------------------
         Quadratically convergent ROHF

 Convergence threshold     :          1.000E-04
 Maximum no. of iterations :           30
 Final Fock-matrix accuracy:          1.000E-07
 ----------------------------------------------


              iter       energy          gnorm     gmax       time
             ----- ------------------- --------- --------- --------
                 1     -218.5651564131  9.51D-01  3.43D-01      0.7
                 2     -218.6037003475  1.20D-01  5.81D-02      0.8
                 3     -218.6044609234  7.81D-03  3.66D-03      0.8
                 4     -218.6044628092  3.83D-05  1.16D-05      0.9


       Final RHF  results 
       ------------------ 

         Total SCF energy =   -218.604462809188
      One-electron energy =   -918.953621625858
      Two-electron energy =    376.085377081862
 Nuclear repulsion energy =    324.263781734808

        Time for solution =      0.2s


             Final eigenvalues
             -----------------

              1      
    1  -11.4229
    2  -11.4102
    3  -11.4102
    4  -11.3809
    5  -11.3809
    6  -11.3671
    7   -1.7488
    8   -1.3411
    9   -1.3411
   10   -1.2006
   11   -1.1357
   12   -1.1357
   13   -0.9999
   14   -0.9912
   15   -0.8957
   16   -0.8957
   17   -0.7762
   18   -0.6455
   19   -0.6455
   20   -0.6332
   21   -0.6332
   22    0.2740
   23    0.2740
   24    0.8451
   25    1.2912
   26    1.2913
   27    1.3087
   28    1.6662
   29    1.6662
   30    1.9902
   31    1.9904

                       ROHF Final Molecular Orbital Analysis
                       -------------------------------------

 Vector    8  Occ=2.000000D+00  E=-1.341109D+00
              MO Center=  8.9D-06, -2.3D-06, -2.2D-13, r^2= 1.7D+00
   Bfn.  Coefficient  Atom+Function         Bfn.  Coefficient  Atom+Function  
  ----- ------------  ---------------      ----- ------------  ---------------
     3      0.242496   1 C  px               21      0.242499   7 C  px        
     8     -0.194433   3 C  s                26      0.194434   9 C  s         
    14     -0.188582   5 C  s                32      0.188586  11 C  s         
     7      0.181256   3 C  s                25     -0.181257   9 C  s         
    13      0.175804   5 C  s                31     -0.175804  11 C  s         

 Vector    9  Occ=2.000000D+00  E=-1.341094D+00
              MO Center=  3.3D-07, -3.0D-06,  2.2D-13, r^2= 1.7D+00
   Bfn.  Coefficient  Atom+Function         Bfn.  Coefficient  Atom+Function  
  ----- ------------  ---------------      ----- ------------  ---------------
     2     -0.221165   1 C  s                20      0.221167   7 C  s         
     1      0.206142   1 C  s                19     -0.206142   7 C  s         
    10     -0.168889   3 C  py               28     -0.168889   9 C  py        
    16     -0.161825   5 C  py               34     -0.161825  11 C  py        

 Vector   10  Occ=2.000000D+00  E=-1.200551D+00
              MO Center= -9.9D-06,  5.8D-06, -2.4D-15, r^2= 2.4D+00
   Bfn.  Coefficient  Atom+Function         Bfn.  Coefficient  Atom+Function  
  ----- ------------  ---------------      ----- ------------  ---------------
     4      0.225762   1 C  py               22     -0.225764   7 C  py        
     9     -0.195491   3 C  px               15     -0.195491   5 C  px        
    27      0.195492   9 C  px               33      0.195492  11 C  px        
     2      0.158688   1 C  s                 8      0.158656   3 C  s         
    14      0.158656   5 C  s                20      0.158686   7 C  s         

 Vector   11  Occ=2.000000D+00  E=-1.135670D+00
              MO Center= -6.4D-06, -3.1D-06, -1.4D-14, r^2= 2.0D+00
   Bfn.  Coefficient  Atom+Function         Bfn.  Coefficient  Atom+Function  
  ----- ------------  ---------------      ----- ------------  ---------------
     3      0.381275   1 C  px               21     -0.381279   7 C  px        
    16     -0.214628   5 C  py               34      0.214623  11 C  py        
    10     -0.208371   3 C  py               28      0.208371   9 C  py        
    12     -0.164569   4 H  s                30     -0.164565  10 H  s         
    18      0.162290   6 H  s                36      0.162290  12 H  s         

 Vector   12  Occ=2.000000D+00  E=-1.135660D+00
              MO Center=  1.4D-05, -1.6D-06,  1.4D-14, r^2= 2.0D+00
   Bfn.  Coefficient  Atom+Function         Bfn.  Coefficient  Atom+Function  
  ----- ------------  ---------------      ----- ------------  ---------------
    10      0.261695   3 C  py               28     -0.261698   9 C  py        
    16     -0.256592   5 C  py               34      0.256595  11 C  py        
     9      0.211696   3 C  px               15      0.211332   5 C  px        
    27     -0.211697   9 C  px               33     -0.211345  11 C  px        
     6      0.188681   2 H  s                24      0.188680   8 H  s         

 Vector   13  Occ=2.000000D+00  E=-9.999413D-01
              MO Center= -2.0D-05,  1.1D-05,  1.3D-16, r^2= 1.6D+00
   Bfn.  Coefficient  Atom+Function         Bfn.  Coefficient  Atom+Function  
  ----- ------------  ---------------      ----- ------------  ---------------
     3      0.374652   1 C  px               21      0.374648   7 C  px        
    10     -0.324441   3 C  py               16      0.324438   5 C  py        
    28     -0.324428   9 C  py               34      0.324432  11 C  py        
     9     -0.187348   3 C  px               15     -0.187351   5 C  px        
    27     -0.187340   9 C  px               33     -0.187350  11 C  px        

 Vector   14  Occ=2.000000D+00  E=-9.911863D-01
              MO Center= -4.5D-07,  3.5D-07,  3.6D-15, r^2= 1.5D+00
   Bfn.  Coefficient  Atom+Function         Bfn.  Coefficient  Atom+Function  
  ----- ------------  ---------------      ----- ------------  ---------------
     5      0.267627   1 C  pz               11      0.267623   3 C  pz        
    17      0.267623   5 C  pz               23      0.267628   7 C  pz        
    29      0.267623   9 C  pz               35      0.267624  11 C  pz        

 Vector   15  Occ=2.000000D+00  E=-8.957450D-01
              MO Center= -5.5D-06, -8.0D-06, -5.4D-15, r^2= 1.6D+00
   Bfn.  Coefficient  Atom+Function         Bfn.  Coefficient  Atom+Function  
  ----- ------------  ---------------      ----- ------------  ---------------
[...]
                                                                                                                                                                                                                                                                                                                                                                                                                                                                                                                                                                                                                                                                                                                                                                                                                                                                                                                                                                                                                                                                                                                                                                                                                                                                                                                                                                                                                                                                                                                                                                                                                                                                                                                                                                                                                                                                                                                                                                                                                                                                                                                                                                                                                                                                                                                                                                                                                                                                                                                                                                                                                                                                                                                                                                                                                                                                                                                                                                                                                                                                                                                                                                                                                                                                                                                                                                                                                                                                                                                                                                                                                                                                                                                                                                                                                                                                                                                                                                                                                                                                                                                                                                                                                                                                                                                                                                                                                                                                                                                                                                                                                                                                                                                                                                                                                                                                                                                                                                                                                                                                                                                                                                                                                                                                                                                                                                                                                                                                                                                                                                                                                                                                                                                                                                                                                                                                                                                                                                                                                                                                                                                                                                                                                                                                                                                                                                                                                                                                                                                                                                                                                                                                                                                                                                                                                                                                                                                                                                                                                                                                                                                                                                                                                                                                                                                                                                                                                                                                                                                                                                                                                                                                                                                                                                                                                                                                                                                                                                                                                                                                                                                                                                                                                                                                                                                                                                                                                                                                                                                                                                                                                                                                                                                                                                                                                                                                                                                                                                                                                                                                                                                                                                                                                                                                                                                                                                                                                                                                                                                                                                                                                                                                                                                                                                                                                                                                                                                                                                                                                                                                                                                                                                                                                                                                                                                                                                                                                                                                                                                                                                                                                                                                                                                                                                                                                                                                                                                                                                                                                                                                                                                                                                                                                                                                                                                                                                                                                                                                                                                                                                                                                                                                                                                                                                                                                                                                                                                                                                                                                                                                                                                                                                                                                                                                                                                                                                                                                                                                                                                                                                                                                                                                                                                                                                                                                                                                                                                                                                                                                                                                                                                                                                                                                                                                                                                                                                                                                                                                                                                                                                                                                                                                                                                                                                                                                                                                                                                                                                                                                                                                                                                                                                                                                                                                                                                                                                                                                                                                                                                                                                                                                                                                                                                                                                                                                                                                                                                                                                                                                                                                                                                                                                                                                                                                                                                                                                                                                                                                                                                                                                                                                                                                                                                                                                                                                                                                                                                                                                                                                                                                                                                                                                                                                                                                                                                                                                                                                                                                                                                                                                :3dxc(1,25,3) = 0.000008
nfockxc:3dxc(1,26,3) = 0.000133
nfockxc:3dxc(1,27,3) = -0.000015
nfockxc:3dxc(1,28,3) = 0.000139
nfockxc:3dxc(1,29,3) = -0.000000
nfockxc:3dxc(1,30,3) = 0.000023
nfockxc:3dxc(1,31,3) = 0.000059
nfockxc:3dxc(1,32,3) = 0.000496
nfockxc:3dxc(1,33,3) = -0.000200
nfockxc:3dxc(1,34,3) = 0.000212
nfockxc:3dxc(1,35,3) = -0.000000
nfockxc:3dxc(1,36,3) = 0.000125
nfockxc:3dxc(1,1,4) = 0.000015
nfockxc:3dxc(1,2,4) = 0.000483
nfockxc:3dxc(1,3,4) = 0.000076
nfockxc:3dxc(1,4,4) = 0.003730
nfockxc:3dxc(1,5,4) = -0.000000
nfockxc:3dxc(1,6,4) = 0.001017
nfockxc:3dxc(1,7,4) = 0.000124
nfockxc:3dxc(1,8,4) = 0.000418
nfockxc:3dxc(1,9,4) = -0.000269
nfockxc:3dxc(1,10,4) = -0.000048
nfockxc:3dxc(1,11,4) = -0.000000
nfockxc:3dxc(1,12,4) = 0.000145
nfockxc:3dxc(1,13,4) = 0.000005
nfockxc:3dxc(1,14,4) = 0.000140
nfockxc:3dxc(1,15,4) = -0.000008
nfockxc:3dxc(1,16,4) = 0.000156
nfockxc:3dxc(1,17,4) = 0.000000
nfockxc:3dxc(1,18,4) = 0.000025
nfockxc:3dxc(1,19,4) = 0.000006
nfockxc:3dxc(1,20,4) = 0.000030
nfockxc:3dxc(1,21,4) = -0.000033
nfockxc:3dxc(1,22,4) = -0.000000
nfockxc:3dxc(1,23,4) = 0.000000
nfockxc:3dxc(1,24,4) = 0.000006
nfockxc:3dxc(1,25,4) = -0.000014
nfockxc:3dxc(1,26,4) = -0.000182
nfockxc:3dxc(1,27,4) = 0.000051
nfockxc:3dxc(1,28,4) = -0.000187
nfockxc:3dxc(1,29,4) = 0.000000
nfockxc:3dxc(1,30,4) = -0.000028
nfockxc:3dxc(1,31,4) = -0.000035
nfockxc:3dxc(1,32,4) = -0.000315
nfockxc:3dxc(1,33,4) = 0.000282
nfockxc:3dxc(1,34,4) = 0.000253
nfockxc:3dxc(1,35,4) = -0.000000
nfockxc:3dxc(1,36,4) = -0.000016
nfockxc:3dxc(1,1,5) = -0.000000
nfockxc:3dxc(1,2,5) = -0.000000
nfockxc:3dxc(1,3,5) = -0.000000
nfockxc:3dxc(1,4,5) = -0.000000
nfockxc:3dxc(1,5,5) = 0.017046
nfockxc:3dxc(1,6,5) = 0.000000
nfockxc:3dxc(1,7,5) = 0.000000
nfockxc:3dxc(1,8,5) = 0.000000
nfockxc:3dxc(1,9,5) = -0.000000
nfockxc:3dxc(1,10,5) = -0.000000
nfockxc:3dxc(1,11,5) = 0.000692
nfockxc:3dxc(1,12,5) = 0.000000
nfockxc:3dxc(1,13,5) = 0.000000
nfockxc:3dxc(1,14,5) = 0.000000
nfockxc:3dxc(1,15,5) = 0.000000
nfockxc:3dxc(1,16,5) = 0.000000
nfockxc:3dxc(1,17,5) = -0.000021
nfockxc:3dxc(1,18,5) = 0.000000
nfockxc:3dxc(1,19,5) = -0.000000
nfockxc:3dxc(1,20,5) = 0.000000
nfockxc:3dxc(1,21,5) = 0.000000
nfockxc:3dxc(1,22,5) = 0.000000
nfockxc:3dxc(1,23,5) = -0.000000
nfockxc:3dxc(1,24,5) = -0.000000
nfockxc:3dxc(1,25,5) = 0.000000
nfockxc:3dxc(1,26,5) = 0.000000
nfockxc:3dxc(1,27,5) = -0.000000
nfockxc:3dxc(1,28,5) = 0.000000
nfockxc:3dxc(1,29,5) = 0.000124
nfockxc:3dxc(1,30,5) = -0.000000
nfockxc:3dxc(1,31,5) = 0.000000
nfockxc:3dxc(1,32,5) = -0.000000
nfockxc:3dxc(1,33,5) = 0.000000
nfockxc:3dxc(1,34,5) = -0.000000
nfockxc:3dxc(1,35,5) = 0.001239
nfockxc:3dxc(1,36,5) = -0.000000
nfockxc:3dxc(1,1,6) = 0.000347
nfockxc:3dxc(1,2,6) = 0.002313
nfockxc:3dxc(1,3,6) = -0.000129
nfockxc:3dxc(1,4,6) = 0.001017
nfockxc:3dxc(1,5,6) = 0.000000
nfockxc:3dxc(1,6,6) = 0.001051
nfockxc:3dxc(1,7,6) = -0.000022
nfockxc:3dxc(1,8,6) = 0.000231
nfockxc:3dxc(1,9,6) = 0.000426
nfockxc:3dxc(1,10,6) = 0.000313
nfockxc:3dxc(1,11,6) = 0.000000
nfockxc:3dxc(1,12,6) = 0.000040
nfockxc:3dxc(1,13,6) = -0.000000
nfockxc:3dxc(1,14,6) = -0.000005
nfockxc:3dxc(1,15,6) = 0.000014
nfockxc:3dxc(1,16,6) = 0.000001
nfockxc:3dxc(1,17,6) = 0.000000
nfockxc:3dxc(1,18,6) = -0.000002
nfockxc:3dxc(1,19,6) = -0.000000
nfockxc:3dxc(1,20,6) = 0.000002
nfockxc:3dxc(1,21,6) = 0.000002
nfockxc:3dxc(1,22,6) = 0.000006
nfockxc:3dxc(1,23,6) = -0.000000
nfockxc:3dxc(1,24,6) = 0.000000
nfockxc:3dxc(1,25,6) = 0.000000
nfockxc:3dxc(1,26,6) = 0.000021
nfockxc:3dxc(1,27,6) = -0.000014
nfockxc:3dxc(1,28,6) = 0.000034
nfockxc:3dxc(1,29,6) = 0.000000
nfockxc:3dxc(1,30,6) = 0.000002
nfockxc:3dxc(1,31,6) = 0.000006
nfockxc:3dxc(1,32,6) = 0.000328
nfockxc:3dxc(1,33,6) = -0.000369
nfockxc:3dxc(1,34,6) = 0.000283
nfockxc:3dxc(1,35,6) = -0.000000
nfockxc:3dxc(1,36,6) = 0.000071
nfockxc:3dxc(1,1,7) = -0.000000
nfockxc:3dxc(1,2,7) = -0.000153
nfockxc:3dxc(1,3,7) = 0.000215
nfockxc:3dxc(1,4,7) = 0.000124
nfockxc:3dxc(1,5,7) = 0.000000
nfockxc:3dxc(1,6,7) = -0.000022
nfockxc:3dxc(1,7,7) = -0.001363
nfockxc:3dxc(1,8,7) = -0.