 argument  1 = /scratch/owengray/BtkP_TDC_14/BtkP_TDC_14.nw



============================== echo of input deck ==============================
echo

start BtkP_TDC_14
title "BtkP TDC calculation number 14 in STO-3G basis set"
scratch_dir /scratch/owengray/BtkP_TDC_14/
permanent_dir /scratch/owengray/BtkP_TDC_14/
geometry units au noautoz nocenter
symmetry c1
	O	-13.542	-60.779	75.092
	P	-12.197	-61.638	75.226
	O	-12.68	-63.183	75.33
	O	-11.421	-61.247	76.412
	O	-11.407	-61.42	73.833
	C	-11.347	-62.483	72.979
	C	-10.313	-63.417	73.107
	C	-10.243	-64.509	72.214
	O	-9.216	-65.402	72.398
	P	-9.162	-66.26	73.786
	O	-8.418	-67.622	73.407
	O	-8.238	-65.49	74.864
	O	-10.502	-66.485	74.365
	C	-11.177	-64.632	71.146
	O	-11.115	-65.719	70.311
	P	-11.479	-65.643	68.732
	O	-13.068	-65.819	68.56
	O	-11.105	-64.15	68.242
	O	-10.726	-66.669	67.969
	C	-12.234	-63.696	71.036
	C	-12.293	-62.597	71.924
	O	-13.306	-61.664	71.858
	P	-13.325	-60.643	70.593
	O	-14.321	-61.202	69.459
	O	-14.023	-59.325	71.207
	O	-11.972	-60.35	70.071
	H	-13.598	-60.163	75.813
	H	-12.371	-63.558	76.146
	H	-9.572	-63.303	73.885
	H	-8.977	-68.359	73.623
	H	-8.738	-65.334	75.656
	H	-12.992	-63.821	70.277
	H	-13.245	-66.56	67.992
	H	-10.462	-64.197	67.544
	H	-13.861	-61.25	68.629
	H	-13.433	-58.585	71.123
end
basis
	O library STO-3G
	P library STO-3G
	H library STO-3G
	C library STO-3G
end
driver
	clear
	maxiter 1000
	xyz final
end
charge 0
dft
	xc b3lyp
	iterations 100
	print "final vectors analysis"
	vectors output BtkP_TDC_14.movecs
end
task dft optimize
tddft
	nroots 10
	cis
	print debug
	notriplet
	civecs
end
task tddft energy
dplot
	vectors BtkP_TDC_14.movecs
	civecs BtkP_TDC_14.civecs_singlet
	root 1
	limitxyz
		-19.2	-3.2	81
		-73.2	-53.4	100
		62.4	81.4	96
		gaussian
		output BtkP_TDC_14_root1.cube
end
task dplot
dplot
	vectors BtkP_TDC_14.movecs
	civecs BtkP_TDC_14.civecs_singlet
	root 2
	limitxyz
		-19.2	-3.2	81
		-73.2	-53.4	100
		62.4	81.4	96
		gaussian
		output BtkP_TDC_14_root2.cube
end
task dplot
================================================================================


                                         
                                         


              Northwest Computational Chemistry Package (NWChem) 6.5
              ------------------------------------------------------


                    Environmental Molecular Sciences Laboratory
                       Pacific Northwest National Laboratory
                                Richland, WA 99352

                              Copyright (c) 1994-2014
                       Pacific Northwest National Laboratory
                            Battelle Memorial Institute

             NWChem is an open-source computational chemistry package
                        distributed under the terms of the
                      Educational Community License (ECL) 2.0
             A copy of the license is included with this distribution
                              in the LICENSE.TXT file

                                  ACKNOWLEDGMENT
                                  --------------

            This software and its documentation were developed at the
            EMSL at Pacific Northwest National Laboratory, a multiprogram
            national laboratory, operated for the U.S. Department of Energy
            by Battelle under Contract Number DE-AC05-76RL01830. Support
            for this work was provided by the Department of Energy Office
            of Biological and Environmental Research, Office of Basic
            Energy Sciences, and the Office of Advanced Scientific Computing.


           Job information
           ---------------

    hostname        = g26
    program         = /cm/shared/NWChem_old/bin/nwchem
    date            = Fri Jul 29 13:00:57 2016

    compiled        = Wed_Nov_26_17:04:32_2014
    source          = /cm/shared/Nwchem6.5-sourceb
    nwchem branch   = 6.5
    nwchem revision = 26243
    ga revision     = 10506
    input           = /scratch/owengray/BtkP_TDC_14/BtkP_TDC_14.nw
    prefix          = BtkP_TDC_14.
    data base       = /scratch/owengray/BtkP_TDC_14//BtkP_TDC_14.db
    status          = startup
    nproc           =       20
    time left       =     -1s



           Memory information
           ------------------

    heap     =   13107196 doubles =    100.0 Mbytes
    stack    =   13107201 doubles =    100.0 Mbytes
    global   =   26214400 doubles =    200.0 Mbytes (distinct from heap & stack)
    total    =   52428797 doubles =    400.0 Mbytes
    verify   = yes
    hardfail = no 


           Directory information
           ---------------------

  0 permanent = /scratch/owengray/BtkP_TDC_14/
  0 scratch   = /scratch/owengray/BtkP_TDC_14/




                                NWChem Input Module
                                -------------------


                BtkP TDC calculation number 14 in STO-3G basis set
                --------------------------------------------------
 Turning off AUTOSYM since
 SYMMETRY directive was detected!



                             Geometry "geometry" -> ""
                             -------------------------

 Output coordinates in a.u. (scale by  1.000000000 to convert to a.u.)

  No.       Tag          Charge          X              Y              Z
 ---- ---------------- ---------- -------------- -------------- --------------
    1 O                    8.0000   -13.54200000   -60.77900000    75.09200000
    2 P                   15.0000   -12.19700000   -61.63800000    75.22600000
    3 O                    8.0000   -12.68000000   -63.18300000    75.33000000
    4 O                    8.0000   -11.42100000   -61.24700000    76.41200000
    5 O                    8.0000   -11.40700000   -61.42000000    73.83300000
    6 C                    6.0000   -11.34700000   -62.48300000    72.97900000
    7 C                    6.0000   -10.31300000   -63.41700000    73.10700000
    8 C                    6.0000   -10.24300000   -64.50900000    72.21400000
    9 O                    8.0000    -9.21600000   -65.40200000    72.39800000
   10 P                   15.0000    -9.16200000   -66.26000000    73.78600000
   11 O                    8.0000    -8.41800000   -67.62200000    73.40700000
   12 O                    8.0000    -8.23800000   -65.49000000    74.86400000
   13 O                    8.0000   -10.50200000   -66.48500000    74.36500000
   14 C                    6.0000   -11.17700000   -64.63200000    71.14600000
   15 O                    8.0000   -11.11500000   -65.71900000    70.31100000
   16 P                   15.0000   -11.47900000   -65.64300000    68.73200000
   17 O                    8.0000   -13.06800000   -65.81900000    68.56000000
   18 O                    8.0000   -11.10500000   -64.15000000    68.24200000
   19 O                    8.0000   -10.72600000   -66.66900000    67.96900000
   20 C                    6.0000   -12.23400000   -63.69600000    71.03600000
   21 C                    6.0000   -12.29300000   -62.59700000    71.92400000
   22 O                    8.0000   -13.30600000   -61.66400000    71.85800000
   23 P                   15.0000   -13.32500000   -60.64300000    70.59300000
   24 O                    8.0000   -14.32100000   -61.20200000    69.45900000
   25 O                    8.0000   -14.02300000   -59.32500000    71.20700000
   26 O                    8.0000   -11.97200000   -60.35000000    70.07100000
   27 H                    1.0000   -13.59800000   -60.16300000    75.81300000
   28 H                    1.0000   -12.37100000   -63.55800000    76.14600000
   29 H                    1.0000    -9.57200000   -63.30300000    73.88500000
   30 H                    1.0000    -8.97700000   -68.35900000    73.62300000
   31 H                    1.0000    -8.73800000   -65.33400000    75.65600000
   32 H                    1.0000   -12.99200000   -63.82100000    70.27700000
   33 H                    1.0000   -13.24500000   -66.56000000    67.99200000
   34 H                    1.0000   -10.46200000   -64.19700000    67.54400000
   35 H                    1.0000   -13.86100000   -61.25000000    68.62900000
   36 H                    1.0000   -13.43300000   -58.58500000    71.12300000

      Atomic Mass 
      ----------- 

      O                 15.994910
      P                 30.973760
      C                 12.000000
      H                  1.007825


 Effective nuclear repulsion energy (a.u.)    6649.3297755039

            Nuclear Dipole moment (a.u.) 
            ----------------------------
        X                 Y               Z
 ---------------- ---------------- ----------------
 -2695.8160000000 **************** 16867.2030000000


            XYZ format geometry
            -------------------
    36
 geometry
 O                    -7.16611831   -32.16286402    39.73697798
 P                    -6.45437491   -32.61742727    39.80788773
 O                    -6.70996752   -33.43500612    39.86292217
 O                    -6.04373336   -32.41051897    40.43549195
 O                    -6.03632488   -32.50206663    39.07074383
 C                    -6.00457424   -33.06458205    38.61882645
 C                    -5.45740497   -33.55883360    38.68656114
 C                    -5.42036256   -34.13669516    38.21400586
 O                    -4.87689753   -34.60925044    38.31137447
 P                    -4.84832196   -35.06328452    39.04587249
 O                    -4.45461408   -35.78402393    38.84531432
 O                    -4.35936218   -34.65581804    39.61632557
 O                    -5.55741947   -35.18234940    39.35226612
 C                    -5.91461411   -34.20178396    37.64884456
 O                    -5.88180512   -34.77699963    37.20698155
 P                    -6.07442564   -34.73678216    36.37141068
 O                    -6.91528829   -34.82991735    36.28039219
 O                    -5.87651335   -33.94672052    36.11211383
 O                    -5.67595517   -35.27971801    35.96764844
 C                    -6.47395446   -33.70647405    37.59063506
 C                    -6.50517592   -33.12490826    38.06054446
 O                    -7.04123248   -32.63118588    38.02561876
 P                    -7.05128684   -32.09089591    37.35620954
 O                    -7.57834738   -32.38670599    36.75612254
 O                    -7.42065256   -31.39344030    37.68112437
 O                    -6.33531003   -31.93584698    37.07997901
 H                    -7.19575223   -31.83689083    40.11851478
 H                    -6.54645175   -33.63344759    40.29473080
 H                    -5.06528463   -33.49850739    39.09826104
 H                    -4.75042416   -36.17402756    38.95961660
 H                    -4.62395080   -34.57326639    40.03543395
 H                    -6.87507082   -33.77262121    37.18898953
 H                    -7.00895266   -35.22203769    35.97981951
 H                    -5.53625238   -33.97159185    35.74274811
 H                    -7.33492585   -32.41210650    36.31690542
 H                    -7.10843799   -31.00184913    37.63667348

 ==============================================================================
                                internuclear distances
 ------------------------------------------------------------------------------
       center one      |      center two      | atomic units |       a.u.
 ------------------------------------------------------------------------------
    2 P                |   1 O                |     1.60152  |     1.60152
    3 O                |   1 O                |     2.56494  |     2.56494
    3 O                |   2 P                |     1.62208  |     1.62208
    4 O                |   1 O                |     2.54167  |     2.54167
    4 O                |   2 P                |     1.47026  |     1.47026
    4 O                |   3 O                |     2.55027  |     2.55027
    5 O                |   1 O                |     2.56011  |     2.56011
    5 O                |   2 P                |     1.61619  |     1.61619
    5 O                |   3 O                |     2.64002  |     2.64002
    5 O                |   4 O                |     2.58483  |     2.58483
    6 C                |   2 P                |     2.54667  |     2.54667
    6 C                |   3 O                |     2.79179  |     2.79179
    6 C                |   5 O                |     1.36488  |     1.36488
    7 C                |   2 P                |     3.34731  |     3.34731
    7 C                |   5 O                |     2.38996  |     2.38996
    7 C                |   6 C                |     1.39925  |     1.39925
    8 C                |   6 C                |     2.43079  |     2.43079
    8 C                |   7 C                |     1.41238  |     1.41238
    9 O                |   7 C                |     2.37620  |     2.37620
    9 O                |   8 C                |     1.37333  |     1.37333
   10 P                |   7 C                |     3.14142  |     3.14142
   10 P                |   8 C                |     2.58955  |     2.58955
   10 P                |   9 O                |     1.63267  |     1.63267
   11 O                |   9 O                |     2.56579  |     2.56579
   11 O                |  10 P                |     1.59757  |     1.59757
   12 O                |   9 O                |     2.65431  |     2.65431
   12 O                |  10 P                |     1.61517  |     1.61517
   12 O                |  11 O                |     2.58857  |     2.58857
   13 O                |   8 C                |     2.93231  |     2.93231
   13 O                |   9 O                |     2.58762  |     2.58762
   13 O                |  10 P                |     1.47698  |     1.47698
   13 O                |  11 O                |     2.56000  |     2.56000
   13 O                |  12 O                |     2.52284  |     2.52284
   14 C                |   6 C                |     2.82966  |     2.82966
   14 C                |   7 C                |     2.46338  |     2.46338
   14 C                |   8 C                |     1.42412  |     1.42412
   14 C                |   9 O                |     2.45070  |     2.45070
   14 C                |  10 P                |     3.69868  |     3.69868
   15 O                |   8 C                |     2.41783  |     2.41783
   15 O                |  14 C                |     1.37209  |     1.37209
   16 P                |  14 C                |     2.63452  |     2.63452
   16 P                |  15 O                |     1.62219  |     1.62219
   17 O                |  15 O                |     2.62492  |     2.62492
   17 O                |  16 P                |     1.60794  |     1.60794
   18 O                |  14 C                |     2.94461  |     2.94461
   18 O                |  15 O                |     2.59666  |     2.59666
   18 O                |  16 P                |     1.61525  |     1.61525
   18 O                |  17 O                |     2.59616  |     2.59616
   19 O                |  15 O                |     2.55710  |     2.55710
   19 O                |  16 P                |     1.48386  |     1.48386
   19 O                |  17 O                |     2.56061  |     2.56061
   19 O                |  18 O                |     2.56194  |     2.56194
   20 C                |   6 C                |     2.45630  |     2.45630
   20 C                |   7 C                |     2.83851  |     2.83851
   20 C                |   8 C                |     2.45209  |     2.45209
   20 C                |  14 C                |     1.41614  |     1.41614
   20 C                |  15 O                |     2.42287  |     2.42287
   20 C                |  16 P                |     3.10954  |     3.10954
   21 C                |   2 P                |     3.43978  |     3.43978
   21 C                |   5 O                |     2.41135  |     2.41135
   21 C                |   6 C                |     1.42160  |     1.42160
   21 C                |   7 C                |     2.44792  |     2.44792
   21 C                |   8 C                |     2.81822  |     2.81822
   21 C                |  14 C                |     2.44785  |     2.44785
   21 C                |  20 C                |     1.41415  |     1.41415
   22 O                |   2 P                |     3.54598  |     3.54598
   22 O                |   6 C                |     2.40106  |     2.40106
   22 O                |  20 C                |     2.44006  |     2.44006
   22 O                |  21 C                |     1.37877  |     1.37877
   23 P                |   6 C                |     3.60431  |     3.60431
   23 P                |  20 C                |     3.27221  |     3.27221
   23 P                |  21 C                |     2.57967  |     2.57967
   23 P                |  22 O                |     1.62574  |     1.62574
   24 O                |  22 O                |     2.64554  |     2.64554
   24 O                |  23 P                |     1.60949  |     1.60949
   25 O                |  22 O                |     2.53156  |     2.53156
   25 O                |  23 P                |     1.61286  |     1.61286
   25 O                |  24 O                |     2.58214  |     2.58214
   26 O                |  21 C                |     2.93013  |     2.93013
   26 O                |  22 O                |     2.58834  |     2.58834
   26 O                |  23 P                |     1.47951  |     1.47951
   26 O                |  24 O                |     2.57260  |     2.57260
   26 O                |  25 O                |     2.55885  |     2.55885
   27 H                |   1 O                |     0.94996  |     0.94996
   27 H                |   2 P                |     2.11731  |     2.11731
   28 H                |   2 P                |     2.13614  |     2.13614
   28 H                |   3 O                |     0.94972  |     0.94972
   29 H                |   6 C                |     2.15496  |     2.15496
   29 H                |   7 C                |     1.08044  |     1.08044
   29 H                |   8 C                |     2.16724  |     2.16724
   30 H                |  10 P                |     2.11343  |     2.11343
   30 H                |  11 O                |     0.94990  |     0.94990
   31 H                |  10 P                |     2.12935  |     2.12935
   31 H                |  12 O                |     0.94953  |     0.94953
   32 H                |  14 C                |     2.16959  |     2.16959
   32 H                |  16 P                |     2.82770  |     2.82770
   32 H                |  20 C                |     1.07994  |     1.07994
   32 H                |  21 C                |     2.16781  |     2.16781
   33 H                |  16 P                |     2.12303  |     2.12303
   33 H                |  17 O                |     0.95028  |     0.95028
   34 H                |  16 P                |     2.12992  |     2.12992
   34 H                |  18 O                |     0.95019  |     0.95019
   35 H                |  23 P                |     2.12439  |     2.12439
   35 H                |  24 O                |     0.95016  |     0.95016
   36 H                |  23 P                |     2.12789  |     2.12789
   36 H                |  25 O                |     0.95013  |     0.95013
 ------------------------------------------------------------------------------
                         number of included internuclear distances:        106
 ==============================================================================



 ==============================================================================
                                 internuclear angles
 ------------------------------------------------------------------------------
        center 1       |       center 2       |       center 3       |  degrees
 ------------------------------------------------------------------------------
    1 O                |   2 P                |   3 O                |   105.44
    1 O                |   2 P                |   4 O                |   111.60
    1 O                |   2 P                |   5 O                |   105.43
    2 P                |   1 O                |  27 H                |   109.50
    1 O                |   4 O                |   3 O                |    60.49
    3 O                |   1 O                |   5 O                |    62.01
    3 O                |   1 O                |  27 H                |   123.86
    4 O                |   1 O                |   5 O                |    60.88
    4 O                |   1 O                |  27 H                |    76.96
    5 O                |   1 O                |  27 H                |   125.79
    1 O                |   2 P                |   3 O                |   105.44
    1 O                |   2 P                |   4 O                |   111.60
    1 O                |   2 P                |   5 O                |   105.43
    1 O                |   2 P                |   6 C                |   112.61
    1 O                |   2 P                |   7 C                |   134.81
    1 O                |   2 P                |  21 C                |    92.62
    1 O                |   2 P                |  22 O                |    70.23
    2 P                |   1 O                |  27 H                |   109.50
    1 O                |   2 P                |  28 H                |   116.73
    3 O                |   2 P                |   4 O                |   111.02
    3 O                |   2 P                |   5 O                |   109.23
    3 O                |   2 P                |   6 C                |    80.79
    3 O                |   2 P                |   7 C                |    72.66
    3 O                |   2 P                |  21 C                |    77.74
    3 O                |   2 P                |  22 O                |    87.75
    3 O                |   2 P                |  27 H                |   116.66
    2 P                |   3 O                |  28 H                |   109.53
    4 O                |   2 P                |   5 O                |   113.67
    4 O                |   2 P                |   6 C                |   128.60
    4 O                |   2 P                |   7 C                |   110.79
    4 O                |   2 P                |  21 C                |   149.68
    4 O                |   2 P                |  22 O                |   158.94
    4 O                |   2 P                |  27 H                |    86.58
    4 O                |   2 P                |  28 H                |    86.25
    2 P                |   5 O                |   6 C                |   117.11
    2 P                |   5 O                |   7 C                |   111.89
    2 P                |   5 O                |  21 C                |   115.91
    5 O                |   2 P                |  22 O                |    48.33
    5 O                |   2 P                |  27 H                |   117.93
    5 O                |   2 P                |  28 H                |   122.16
    2 P                |   6 C                |   7 C                |   112.79
    2 P                |   6 C                |  21 C                |   117.34
    2 P                |   6 C                |  22 O                |    91.52
    6 C                |   2 P                |  27 H                |   134.16
    6 C                |   2 P                |  28 H                |    96.26
    2 P                |   7 C                |  21 C                |    70.89
    7 C                |   2 P                |  22 O                |    64.59
    7 C                |   2 P                |  27 H                |   156.66
    7 C                |   2 P                |  28 H                |    80.84
    2 P                |  21 C                |  22 O                |    82.98
   21 C                |   2 P                |  27 H                |   116.22
   21 C                |   2 P                |  28 H                |    99.24
   22 O                |   2 P                |  27 H                |    93.53
   22 O                |   2 P                |  28 H                |   112.15
   27 H                |   2 P                |  28 H                |   116.93
    3 O                |   2 P                |   1 O                |   105.44
    3 O                |   4 O                |   1 O                |    60.49
    3 O                |   1 O                |   5 O                |    62.01
    1 O                |   3 O                |   6 C                |    81.22
    1 O                |   3 O                |  28 H                |   124.00
    3 O                |   2 P                |   4 O                |   111.02
    3 O                |   2 P                |   5 O                |   109.23
    3 O                |   2 P                |   6 C                |    80.79
    2 P                |   3 O                |  28 H                |   109.53
    3 O                |   4 O                |   5 O                |    61.87
    4 O                |   3 O                |   6 C                |    86.06
    4 O                |   3 O                |  28 H                |    76.97
    3 O                |   5 O                |   6 C                |    81.71
    5 O                |   3 O                |  28 H                |   126.44
    6 C                |   3 O                |  28 H                |   131.85
    4 O                |   2 P                |   1 O                |   111.60
    1 O                |   4 O                |   3 O                |    60.49
    4 O                |   1 O                |   5 O                |    60.88
    4 O                |   2 P                |   3 O                |   111.02
    4 O                |   2 P                |   5 O                |   113.67
    3 O                |   4 O                |   5 O                |    61.87
    5 O                |   2 P                |   1 O                |   105.43
    5 O                |   1 O                |   3 O                |    62.01
    5 O                |   1 O                |   4 O                |    60.88
    1 O                |   5 O                |   6 C                |   122.64
    1 O                |   5 O                |   7 C                |   137.76
    1 O                |   5 O                |  21 C                |   101.84
    5 O                |   2 P                |   3 O                |   109.23
    5 O                |   2 P                |   4 O                |   113.67
    2 P                |   5 O                |   6 C                |   117.11
    2 P                |   5 O                |   7 C                |   111.89
    2 P                |   5 O                |  21 C                |   115.91
    5 O                |   4 O                |   3 O                |    61.87
    3 O                |   5 O                |   6 C                |    81.71
    3 O                |   5 O                |   7 C                |    80.50
    3 O                |   5 O                |  21 C                |    86.89
    4 O                |   5 O                |   6 C                |   132.58
    4 O                |   5 O                |   7 C                |   111.19
    4 O                |   5 O                |  21 C                |   145.14
    5 O                |   6 C                |   7 C                |   119.68
    5 O                |   6 C                |  21 C                |   119.84
    7 C                |   5 O                |  21 C                |    61.30
    6 C                |   2 P                |   3 O                |    80.79
    6 C                |   5 O                |   2 P                |   117.11
    2 P                |   6 C                |   7 C                |   112.79
    2 P                |   6 C                |   8 C                |   134.90
    2 P                |   6 C                |  14 C                |   147.52
    2 P                |   6 C                |  20 C                |   137.84
    2 P                |   6 C                |  21 C                |   117.34
    2 P                |   6 C                |  22 O                |    91.52
    2 P                |   6 C                |  23 P                |   103.39
    2 P                |   6 C                |  29 H                |    91.73
    6 C                |   5 O                |   3 O                |    81.71
    3 O                |   6 C                |   7 C                |    96.23
    3 O                |   6 C                |   8 C                |   105.84
    3 O                |   6 C                |  14 C                |   112.57
    3 O                |   6 C                |  20 C                |   111.71
    3 O                |   6 C                |  21 C                |   106.69
    3 O                |   6 C                |  22 O                |    95.11
    3 O                |   6 C                |  23 P                |   115.05
    3 O                |   6 C                |  29 H                |    86.78
    5 O                |   6 C                |   7 C                |   119.68
    5 O                |   6 C                |   8 C                |   150.00
    5 O                |   6 C                |  14 C                |   178.08
    5 O                |   6 C                |  20 C                |   149.73
    5 O                |   6 C                |  21 C                |   119.84
    5 O                |   6 C                |  22 O                |    89.46
    5 O                |   6 C                |  23 P                |    89.57
    5 O                |   6 C                |  29 H                |    93.99
    6 C                |   7 C                |   8 C                |   119.66
    6 C                |   7 C                |  14 C                |    89.84
    7 C                |   6 C                |  20 C                |    90.55
    7 C                |   6 C                |  21 C                |   120.40
    7 C                |   6 C                |  22 O                |   150.85
    7 C                |   6 C                |  23 P                |   143.79
    6 C                |   7 C                |  29 H                |   120.15
    6 C                |   8 C                |  14 C                |    90.58
    6 C                |   8 C                |  20 C                |    60.40
    8 C                |   6 C                |  21 C                |    90.11
    8 C                |   6 C                |  22 O                |   120.53
    8 C                |   6 C                |  23 P                |   117.80
    6 C                |  29 H                |   8 C                |    68.44
    6 C                |  20 C                |  14 C                |    89.74
    6 C                |  21 C                |  14 C                |    89.95
   14 C                |   6 C                |  22 O                |    90.32
   14 C                |   6 C                |  23 P                |    89.53
   14 C                |   6 C                |  29 H                |    86.21
    6 C                |  21 C                |  20 C                |   120.04
    6 C                |  22 O                |  20 C                |    60.97
    6 C                |  20 C                |  23 P                |    76.51
   20 C                |   6 C                |  29 H                |   116.24
    6 C                |  21 C                |  22 O                |   118.05
    6 C                |  21 C                |  23 P                |   126.04
   21 C                |   6 C                |  29 H                |   146.06
    6 C                |  22 O                |  23 P                |   125.95
   22 O                |   6 C                |  29 H                |   176.48
   23 P                |   6 C                |  29 H                |   157.61
    7 C                |   5 O                |   2 P                |   111.89
    7 C                |   6 C                |   2 P                |   112.79
    2 P                |   7 C                |   8 C                |   147.04
    2 P                |   7 C                |   9 O                |   153.21
    2 P                |   7 C                |  10 P                |   123.39
    2 P                |   7 C                |  14 C                |   124.66
    2 P                |   7 C                |  20 C                |    97.65
    2 P                |   7 C                |  21 C                |    70.89
    2 P                |   7 C                |  29 H                |    82.77
    7 C                |   6 C                |   5 O                |   119.68
    5 O                |   7 C                |   8 C                |   149.41
    5 O                |   7 C                |   9 O                |   179.62
    5 O                |   7 C                |  10 P                |   149.12
    5 O                |   7 C                |  14 C                |   119.56
    5 O                |   7 C                |  20 C                |    89.65
    7 C                |   5 O                |  21 C                |    61.30
    5 O                |   7 C                |  29 H                |    90.40
    6 C                |   7 C                |   8 C                |   119.66
    6 C                |   7 C                |   9 O                |   150.63
    6 C                |   7 C                |  10 P                |   153.46
    6 C                |   7 C                |  14 C                |    89.84
    7 C                |   6 C                |  20 C                |    90.55
    7 C                |   6 C                |  21 C                |   120.40
    6 C                |   7 C                |  29 H                |   120.15
    7 C                |   8 C                |   9 O                |   117.07
    7 C                |   8 C                |  10 P                |    99.19
    7 C                |   8 C                |  14 C                |   120.56
    7 C                |   8 C                |  20 C                |    90.41
    8 C                |   7 C                |  21 C                |    89.63
    8 C                |   7 C                |  29 H                |   120.19
    7 C                |   9 O                |  10 P                |   101.57
    7 C                |   9 O                |  14 C                |    61.35
    9 O                |   7 C                |  20 C                |    90.72
    9 O                |   7 C                |  21 C                |   120.60
    9 O                |   7 C                |  29 H                |    89.22
   10 P                |   7 C                |  14 C                |    81.62
   10 P                |   7 C                |  20 C                |   108.46
   10 P                |   7 C                |  21 C                |   134.75
   10 P                |   7 C                |  29 H                |    71.85
    7 C                |  14 C                |  20 C                |    89.86
    7 C                |  21 C                |  14 C                |    60.42
   14 C                |   7 C                |  29 H                |   149.98
    7 C                |  21 C                |  20 C                |    90.54
   20 C                |   7 C                |  29 H                |   179.14
   21 C                |   7 C                |  29 H                |   150.16
    8 C                |   7 C                |   6 C                |   119.66
    6 C                |   8 C                |   9 O                |   147.08
    6 C                |   8 C                |  10 P                |   124.20
    6 C                |   8 C                |  13 O                |   106.90
    6 C                |   8 C                |  14 C                |    90.58
    6 C                |   8 C                |  15 O                |   120.07
    6 C                |   8 C                |  20 C                |    60.40
    8 C                |   6 C                |  21 C                |    90.11
    8 C                |  29 H                |   6 C                |    68.44
    7 C                |   8 C                |   9 O                |   117.07
    7 C                |   8 C                |  10 P                |    99.19
    7 C                |   8 C                |  13 O                |    93.03
    7 C                |   8 C                |  14 C                |   120.56
    7 C                |   8 C                |  15 O                |   150.08
    7 C                |   8 C                |  20 C                |    90.41
    8 C                |   7 C                |  21 C                |    89.63
    8 C                |   7 C                |  29 H                |   120.19
    8 C                |   9 O                |  10 P                |   118.71
    8 C                |   9 O                |  13 O                |    90.13
    9 O                |   8 C                |  14 C                |   122.33
    9 O                |   8 C                |  15 O                |    92.85
    9 O                |   8 C                |  20 C                |   152.52
    9 O                |   8 C                |  21 C                |   177.33
    9 O                |   8 C                |  29 H                |    91.55
    8 C                |  10 P                |  13 O                |    87.84
   10 P                |   8 C                |  14 C                |   132.12
   10 P                |   8 C                |  15 O                |   106.86
   10 P                |   8 C                |  20 C                |   148.73
   10 P                |   8 C                |  21 C                |   145.58
   10 P                |   8 C                |  29 H                |    77.23
   13 O                |   8 C                |  14 C                |   115.72
   13 O                |   8 C                |  15 O                |   102.02
   13 O                |   8 C                |  20 C                |   120.27
   13 O                |   8 C                |  21 C                |   117.93
   13 O                |   8 C                |  29 H                |    80.60
    8 C                |  14 C                |  15 O                |   119.68
    8 C                |  14 C                |  20 C                |   119.39
    8 C                |  14 C                |  21 C                |    89.36
   14 C                |   8 C                |  29 H                |   146.03
    8 C                |  15 O                |  20 C                |    60.87
   15 O                |   8 C                |  21 C                |    89.78
   15 O                |   8 C                |  29 H                |   175.56
    8 C                |  20 C                |  21 C                |    89.42
   20 C                |   8 C                |  29 H                |   115.93
   21 C                |   8 C                |  29 H                |    85.81
    9 O                |   8 C                |   7 C                |   117.07
    7 C                |   9 O                |  10 P                |   101.57
    7 C                |   9 O                |  11 O                |   138.51
    7 C                |   9 O                |  12 O                |    85.45
    7 C                |   9 O                |  13 O                |    83.88
    7 C                |   9 O                |  14 C                |    61.35
    8 C                |   9 O                |  10 P                |   118.71
    8 C                |   9 O                |  11 O                |   147.98
    8 C                |   9 O                |  12 O                |   114.93
    8 C                |   9 O                |  13 O                |    90.13
    9 O                |   8 C                |  14 C                |   122.33
    9 O                |  10 P                |  11 O                |   105.17
    9 O                |  10 P                |  12 O                |   109.62
    9 O                |  10 P                |  13 O                |   112.54
   10 P                |   9 O                |  14 C                |   128.75
    9 O                |  11 O                |  12 O                |    61.99
    9 O                |  11 O                |  13 O                |    60.64
   11 O                |   9 O                |  14 C                |   136.19
    9 O                |  13 O                |  12 O                |    62.57
   12 O                |   9 O                |  14 C                |   141.25
   13 O                |   9 O                |  14 C                |    97.02
   10 P                |   8 C                |   7 C                |    99.19
   10 P                |   9 O                |   7 C                |   101.57
    7 C                |  10 P                |  11 O                |   152.99
    7 C                |  10 P                |  12 O                |    85.55
    7 C                |  10 P                |  13 O                |    83.70
   10 P                |   7 C                |  14 C                |    81.62
    7 C                |  10 P                |  30 H                |   156.10
    7 C                |  10 P                |  31 H                |    82.48
   10 P                |   9 O                |   8 C                |   118.71
    8 C                |  10 P                |  11 O                |   128.82
    8 C                |  10 P                |  12 O                |   108.76
    8 C                |  10 P                |  13 O                |    87.84
   10 P                |   8 C                |  14 C                |   132.12
    8 C                |  10 P                |  30 H                |   131.40
    8 C                |  10 P                |  31 H                |   108.80
    9 O                |  10 P                |  11 O                |   105.17
    9 O                |  10 P                |  12 O                |   109.62
    9 O                |  10 P                |  13 O                |   112.54
   10 P                |   9 O                |  14 C                |   128.75
    9 O                |  10 P                |  30 H                |   117.34
    9 O                |  10 P                |  31 H                |   121.64
   11 O                |  10 P                |  12 O                |   107.36
   11 O                |  10 P                |  13 O                |   112.68
   11 O                |  10 P                |  14 C                |   117.36
   10 P                |  11 O                |  30 H                |   109.48
   11 O                |  10 P                |  31 H                |   119.10
   12 O                |  10 P                |  13 O                |   109.27
   12 O                |  10 P                |  14 C                |   125.32
   12 O                |  10 P                |  30 H                |   118.35
   10 P                |  12 O                |  31 H                |   109.50
   13 O                |  10 P                |  14 C                |    81.52
   13 O                |  10 P                |  30 H                |    87.61
   13 O                |  10 P                |  31 H                |    84.41
   14 C                |  10 P                |  30 H                |   115.45
   14 C                |  10 P                |  31 H                |   122.95
   30 H                |  10 P                |  31 H                |   118.83
   11 O                |  10 P                |   9 O                |   105.17
    9 O                |  11 O                |  12 O                |    61.99
    9 O                |  11 O                |  13 O                |    60.64
    9 O                |  11 O                |  30 H                |   125.29
   11 O                |  10 P                |  12 O                |   107.36
   11 O                |  10 P                |  13 O                |   112.68
   10 P                |  11 O                |  30 H                |   109.48
   11 O                |  13 O                |  12 O                |    61.23
   12 O                |  11 O                |  30 H                |   123.50
   13 O                |  11 O                |  30 H                |    77.32
   12 O                |  10 P                |   9 O                |   109.62
   12 O                |  11 O                |   9 O                |    61.99
   12 O                |  13 O                |   9 O                |    62.57
    9 O                |  12 O                |  31 H                |   125.13
   12 O                |  10 P                |  11 O                |   107.36
   12 O                |  10 P                |  13 O                |   109.27
   10 P                |  12 O                |  31 H                |   109.50
   12 O                |  13 O                |  11 O                |    61.23
   11 O                |  12 O                |  31 H                |   124.62
   13 O                |  12 O                |  31 H                |    75.95
   13 O                |   9 O                |   8 C                |    90.13
   13 O                |  10 P                |   8 C                |    87.84
    8 C                |  13 O                |  11 O                |    87.30
    8 C                |  13 O                |  12 O                |    78.47
   13 O                |  10 P                |   9 O                |   112.54
   13 O                |  11 O                |   9 O                |    60.64
    9 O                |  13 O                |  12 O                |    62.57
   13 O                |  10 P                |  11 O                |   112.68
   13 O                |  10 P                |  12 O                |   109.27
   11 O                |  13 O                |  12 O                |    61.23
   14 C                |   7 C                |   6 C                |    89.84
   14 C                |   8 C                |   6 C                |    90.58
    6 C                |  14 C                |   9 O                |    87.46
    6 C                |  14 C                |  10 P                |    84.53
    6 C                |  14 C                |  15 O                |   176.95
    6 C                |  14 C                |  16 P                |   151.42
    6 C                |  14 C                |  18 O                |   121.06
   14 C                |  20 C                |   6 C                |    89.74
   14 C                |  21 C                |   6 C                |    89.95
    6 C                |  14 C                |  32 H                |    85.72
   14 C                |   8 C                |   7 C                |   120.56
   14 C                |   9 O                |   7 C                |    61.35
   14 C                |   7 C                |  10 P                |    81.62
    7 C                |  14 C                |  15 O                |   149.24
    7 C                |  14 C                |  16 P                |   163.52
    7 C                |  14 C                |  18 O                |   134.09
    7 C                |  14 C                |  20 C                |    89.86
   14 C                |  21 C                |   7 C                |    60.42
    7 C                |  14 C                |  32 H                |   115.33
   14 C                |   8 C                |   9 O                |   122.33
   14 C                |   8 C                |  10 P                |   132.12
    8 C                |  14 C                |  15 O                |   119.68
    8 C                |  14 C                |  16 P                |   142.70
    8 C                |  14 C                |  18 O                |   135.19
    8 C                |  14 C                |  20 C                |   119.39
    8 C                |  14 C                |  21 C                |    89.36
    8 C                |  14 C                |  32 H                |   144.76
   14 C                |   9 O                |  10 P                |   128.75
    9 O                |  14 C                |  15 O                |    91.48
    9 O                |  14 C                |  16 P                |   116.06
    9 O                |  14 C                |  18 O                |   122.39
    9 O                |  14 C                |  20 C                |   147.63
    9 O                |  14 C                |  21 C                |   117.62
    9 O                |  14 C                |  32 H                |   172.51
   10 P                |  14 C                |  15 O                |    93.50
   10 P                |  14 C                |  16 P                |   123.20
   10 P                |  14 C                |  18 O                |   139.70
   10 P                |  14 C                |  20 C                |   138.85
   10 P                |  14 C                |  21 C                |   112.80
   10 P                |  14 C                |  32 H                |   154.98
   14 C                |  15 O                |  16 P                |   123.03
   14 C                |  15 O                |  18 O                |    90.37
   15 O                |  14 C                |  20 C                |   120.67
   15 O                |  14 C                |  21 C                |   150.77
   15 O                |  14 C                |  32 H                |    95.17
   14 C                |  16 P                |  18 O                |    84.07
   16 P                |  14 C                |  20 C                |    95.56
   16 P                |  14 C                |  21 C                |   123.92
   16 P                |  14 C                |  32 H                |    71.37
   18 O                |  14 C                |  20 C                |    80.41
   18 O                |  14 C                |  21 C                |   100.87
   18 O                |  14 C                |  32 H                |    64.17
   14 C                |  20 C                |  21 C                |   119.74
   14 C                |  20 C                |  32 H                |   120.13
   14 C                |  32 H                |  21 C                |    68.72
   15 O                |  14 C                |   8 C                |   119.68
    8 C                |  15 O                |  16 P                |   145.45
    8 C                |  15 O                |  17 O                |   144.33
    8 C                |  15 O                |  18 O                |   108.87
    8 C                |  15 O                |  19 O                |   148.42
    8 C                |  15 O                |  20 C                |    60.87
   14 C                |  15 O                |  16 P                |   123.03
   14 C                |  15 O                |  17 O                |   113.74
   14 C                |  15 O                |  18 O                |    90.37
   14 C                |  15 O                |  19 O                |   149.16
   15 O                |  14 C                |  20 C                |   120.67
   15 O                |  16 P                |  17 O                |   108.71
   15 O                |  16 P                |  18 O                |   106.66
   15 O                |  16 P                |  19 O                |   110.75
   16 P                |  15 O                |  20 C                |    98.54
   15 O                |  18 O                |  17 O                |    60.73
   15 O                |  19 O                |  17 O                |    61.72
   17 O                |  15 O                |  20 C                |    83.56
   15 O                |  19 O                |  18 O                |    60.96
   18 O                |  15 O                |  20 C                |    74.67
   19 O                |  15 O                |  20 C                |   130.88
   16 P                |  15 O                |  14 C                |   123.03
   14 C                |  16 P                |  17 O                |   104.67
   14 C                |  16 P                |  18 O                |    84.07
   14 C                |  16 P                |  19 O                |   132.71
   16 P                |  14 C                |  20 C                |    95.56
   16 P                |  14 C                |  32 H                |    71.37
   14 C                |  16 P                |  33 H                |   125.49
   14 C                |  16 P                |  34 H                |   101.29
   15 O                |  16 P                |  17 O                |   108.71
   15 O                |  16 P                |  18 O                |   106.66
   15 O                |  16 P                |  19 O                |   110.75
   16 P                |  15 O                |  20 C                |    98.54
   15 O                |  16 P                |  32 H                |    67.57
   15 O                |  16 P                |  33 H                |   120.38
   15 O                |  16 P                |  34 H                |   117.88
   17 O                |  16 P                |  18 O                |   107.31
   17 O                |  16 P                |  19 O                |   111.76
   17 O                |  16 P                |  20 C                |    84.71
   17 O                |  16 P                |  32 H                |    66.44
   16 P                |  17 O                |  33 H                |   109.47
   17 O                |  16 P                |  34 H                |   119.11
   18 O                |  16 P                |  19 O                |   111.45
   18 O                |  16 P                |  20 C                |    72.68
   18 O                |  16 P                |  32 H                |    72.19
   18 O                |  16 P                |  33 H                |   119.09
   16 P                |  18 O                |  34 H                |   109.50
   19 O                |  16 P                |  20 C                |   159.58
   19 O                |  16 P                |  32 H                |   176.37
   19 O                |  16 P                |  33 H                |    86.80
   19 O                |  16 P                |  34 H                |    86.58
   16 P                |  32 H                |  20 C                |    94.76
   20 C                |  16 P                |  33 H                |   109.07
   20 C                |  16 P                |  34 H                |    95.98
   32 H                |  16 P                |  33 H                |    91.36
   32 H                |  16 P                |  34 H                |    97.05
   33 H                |  16 P                |  34 H                |   119.74
   17 O                |  16 P                |  15 O                |   108.71
   17 O                |  18 O                |  15 O                |    60.73
   17 O                |  19 O                |  15 O                |    61.72
   15 O                |  17 O                |  33 H                |   124.54
   17 O                |  16 P                |  18 O                |   107.31
   17 O                |  16 P                |  19 O                |   111.76
   16 P                |  17 O                |  33 H                |   109.47
   17 O                |  19 O                |  18 O                |    60.90
   18 O                |  17 O                |  33 H                |   124.67
   19 O                |  17 O                |  33 H                |    76.91
   18 O                |  15 O                |  14 C                |    90.37
   18 O                |  16 P                |  14 C                |    84.07
   14 C                |  18 O                |  17 O                |    75.85
   14 C                |  18 O                |  19 O                |    87.01
   14 C                |  18 O                |  34 H                |   137.13
   18 O                |  16 P                |  15 O                |   106.66
   15 O                |  18 O                |  17 O                |    60.73
   18 O                |  19 O                |  15 O                |    60.96
   15 O                |  18 O                |  34 H                |   123.92
   18 O                |  16 P                |  17 O                |   107.31
   18 O                |  16 P                |  19 O                |   111.45
   16 P                |  18 O                |  34 H                |   109.50
   18 O                |  19 O                |  17 O                |    60.90
   17 O                |  18 O                |  34 H                |   124.74
   19 O                |  18 O                |  34 H                |    76.88
   19 O                |  16 P                |  15 O                |   110.75
   15 O                |  19 O                |  17 O                |    61.72
   15 O                |  19 O                |  18 O                |    60.96
   19 O                |  16 P                |  17 O                |   111.76
   19 O                |  16 P                |  18 O                |   111.45
   17 O                |  19 O                |  18 O                |    60.90
   20 C                |   6 C                |   7 C                |    90.55
   20 C                |   8 C                |   6 C                |    60.40
    6 C                |  20 C                |  14 C                |    89.74
    6 C                |  20 C                |  15 O                |   118.83
    6 C                |  20 C                |  16 P                |   143.87
   20 C                |  21 C                |   6 C                |   120.04
   20 C                |  22 O                |   6 C                |    60.97
    6 C                |  20 C                |  23 P                |    76.51
    6 C                |  20 C                |  32 H                |   150.06
   20 C                |   8 C                |   7 C                |    90.41
   20 C                |  14 C                |   7 C                |    89.86
    7 C                |  20 C                |  15 O                |    89.30
    7 C                |  20 C                |  16 P                |   115.97
   20 C                |  21 C                |   7 C                |    90.54
    7 C                |  20 C                |  22 O                |    88.26
    7 C                |  20 C                |  23 P                |   103.46
    7 C                |  20 C                |  32 H                |   177.67
   20 C                |  14 C                |   8 C                |   119.39
   20 C                |  15 O                |   8 C                |    60.87
    8 C                |  20 C                |  16 P                |    87.20
    8 C                |  20 C                |  21 C                |    89.42
    8 C                |  20 C                |  22 O                |   118.10
    8 C                |  20 C                |  23 P                |   130.17
    8 C                |  20 C                |  32 H                |   150.36
   20 C                |  14 C                |  15 O                |   120.67
   20 C                |  14 C                |  16 P                |    95.56
   14 C                |  20 C                |  21 C                |   119.74
   14 C                |  20 C                |  22 O                |   148.45
   14 C                |  20 C                |  23 P                |   151.17
   14 C                |  20 C                |  32 H                |   120.13
   20 C                |  15 O                |  16 P                |    98.54
   15 O                |  20 C                |  21 C                |   148.88
   15 O                |  20 C                |  22 O                |   177.48
   15 O                |  20 C                |  23 P                |   153.19
   15 O                |  20 C                |  32 H                |    90.99
   16 P                |  20 C                |  21 C                |   164.15
   16 P                |  20 C                |  22 O                |   151.37
   16 P                |  20 C                |  23 P                |   124.39
   20 C                |  32 H                |  16 P                |    94.76
   20 C                |  21 C                |  22 O                |   121.77
   20 C                |  21 C                |  23 P                |   106.34
   21 C                |  20 C                |  32 H                |   120.13
   20 C                |  22 O                |  23 P                |   105.43
   22 O                |  20 C                |  32 H                |    91.42
   23 P                |  20 C                |  32 H                |    77.22
   21 C                |   5 O                |   2 P                |   115.91
   21 C                |   6 C                |   2 P                |   117.34
   21 C                |   7 C                |   2 P                |    70.89
    2 P                |  21 C                |   8 C                |    94.02
    2 P                |  21 C                |  14 C                |   121.61
    2 P                |  21 C                |  20 C                |   144.91
    2 P                |  21 C                |  22 O                |    82.98
    2 P                |  21 C                |  23 P                |   107.17
    2 P                |  21 C                |  26 O                |   112.97
    2 P                |  21 C                |  32 H                |   153.60
   21 C                |   6 C                |   5 O                |   119.84
   21 C                |   5 O                |   7 C                |    61.30
    5 O                |  21 C                |   8 C                |    88.99
    5 O                |  21 C                |  14 C                |   119.33
    5 O                |  21 C                |  20 C                |   149.44
    5 O                |  21 C                |  22 O                |    88.71
    5 O                |  21 C                |  23 P                |   100.70
    5 O                |  21 C                |  26 O                |    94.94
    5 O                |  21 C                |  32 H                |   174.59
   21 C                |   6 C                |   7 C                |   120.40
   21 C                |   6 C                |   8 C                |    90.11
    6 C                |  21 C                |  14 C                |    89.95
    6 C                |  21 C                |  20 C                |   120.04
    6 C                |  21 C                |  22 O                |   118.05
    6 C                |  21 C                |  23 P                |   126.04
    6 C                |  21 C                |  26 O                |   109.57
    6 C                |  21 C                |  32 H                |   145.45
   21 C                |   7 C                |   8 C                |    89.63
    7 C                |  21 C                |  14 C                |    60.42
    7 C                |  21 C                |  20 C                |    90.54
    7 C                |  21 C                |  22 O                |   147.57
    7 C                |  21 C                |  23 P                |   145.76
    7 C                |  21 C                |  26 O                |   118.29
    7 C                |  21 C                |  32 H                |   116.03
   21 C                |  14 C                |   8 C                |    89.36
   21 C                |  20 C                |   8 C                |    89.42
    8 C                |  21 C                |  22 O                |   176.82
    8 C                |  21 C                |  23 P                |   149.09
    8 C                |  21 C                |  26 O                |   120.37
    8 C                |  21 C                |  32 H                |    85.97
   21 C                |  20 C                |  14 C                |   119.74
   14 C                |  21 C                |  22 O                |   151.92
   14 C                |  21 C                |  23 P                |   130.40
   14 C                |  21 C                |  26 O                |   112.74
   21 C                |  32 H                |  14 C                |    68.72
   20 C                |  21 C                |  22 O                |   121.77
   20 C                |  21 C                |  23 P                |   106.34
   20 C                |  21 C                |  26 O                |   101.20
   21 C                |  20 C                |  32 H                |   120.13
   21 C                |  22 O                |  23 P                |   118.09
   21 C                |  22 O                |  26 O                |    89.88
   22 O                |  21 C                |  32 H                |    96.25
   21 C                |  23 P                |  26 O                |    88.06
   23 P                |  21 C                |  32 H                |    84.65
   26 O                |  21 C                |  32 H                |    89.30
   22 O                |   6 C                |   2 P                |    91.52
    2 P                |  22 O                |  20 C                |   100.88
   22 O                |  21 C                |   2 P                |    82.98
    2 P                |  22 O                |  23 P                |   137.57
    2 P                |  22 O                |  24 O                |   168.52
    2 P                |  22 O                |  25 O                |   109.03
    2 P                |  22 O                |  26 O                |   119.40
    6 C                |  22 O                |  20 C                |    60.97
   22 O                |  21 C                |   6 C                |   118.05
    6 C                |  22 O                |  23 P                |   125.95
    6 C                |  22 O                |  24 O                |   142.75
    6 C                |  22 O                |  25 O                |   131.78
    6 C                |  22 O                |  26 O                |    94.30
   22 O                |  21 C                |  20 C                |   121.77
   20 C                |  22 O                |  23 P                |   105.43
   20 C                |  22 O                |  24 O                |    90.49
   20 C                |  22 O                |  25 O                |   143.83
   20 C                |  22 O                |  26 O                |    87.92
   21 C                |  22 O                |  23 P                |   118.09
   21 C                |  22 O                |  24 O                |   116.33
   21 C                |  22 O                |  25 O                |   147.74
   21 C                |  22 O                |  26 O                |    89.88
   22 O                |  23 P                |  24 O                |   109.72
   22 O                |  23 P                |  25 O                |   102.83
   22 O                |  23 P                |  26 O                |   112.84
   22 O                |  25 O                |  24 O                |    62.30
   22 O                |  26 O                |  24 O                |    61.67
   22 O                |  25 O                |  26 O                |    61.12
   23 P                |  20 C                |   6 C                |    76.51
   23 P                |  21 C                |   6 C                |   126.04
   23 P                |  22 O                |   6 C                |   125.95
    6 C                |  23 P                |  24 O                |   128.96
    6 C                |  23 P                |  25 O                |   113.74
    6 C                |  23 P                |  26 O                |    80.37
    6 C                |  23 P                |  35 H                |   127.20
    6 C                |  23 P                |  36 H                |   110.90
   23 P                |  21 C                |  20 C                |   106.34
   23 P                |  22 O                |  20 C                |   105.43
   20 C                |  23 P                |  24 O                |    88.72
   20 C                |  23 P                |  25 O                |   148.78
   20 C                |  23 P                |  26 O                |    85.85
   20 C                |  23 P                |  35 H                |    86.71
   20 C                |  23 P                |  36 H                |   152.32
   23 P                |  22 O                |  21 C                |   118.09
   21 C                |  23 P                |  24 O                |   110.37
   21 C                |  23 P                |  25 O                |   126.56
   21 C                |  23 P                |  26 O                |    88.06
   21 C                |  23 P                |  35 H                |   111.19
   21 C                |  23 P                |  36 H                |   128.64
   22 O                |  23 P                |  24 O                |   109.72
   22 O                |  23 P                |  25 O                |   102.83
   22 O                |  23 P                |  26 O                |   112.84
   22 O                |  23 P                |  35 H                |   122.88
   22 O                |  23 P                |  36 H                |   114.47
   24 O                |  23 P                |  25 O                |   106.51
   24 O                |  23 P                |  26 O                |   112.71
   23 P                |  24 O                |  35 H                |   109.48
   24 O                |  23 P                |  36 H                |   118.68
   25 O                |  23 P                |  26 O                |   111.61
   25 O                |  23 P                |  35 H                |   118.44
   23 P                |  25 O                |  36 H                |   109.52
   26 O                |  23 P                |  35 H                |    87.77
   26 O                |  23 P                |  36 H                |    86.72
   35 H                |  23 P                |  36 H                |   119.59
   24 O                |  23 P                |  22 O                |   109.72
   24 O                |  25 O                |  22 O                |    62.30
   24 O                |  26 O                |  22 O                |    61.67
   22 O                |  24 O                |  35 H                |   126.70
   24 O                |  23 P                |  25 O                |   106.51
   24 O                |  23 P                |  26 O                |   112.71
   23 P                |  24 O                |  35 H                |   109.48
   24 O                |  26 O                |  25 O                |    60.42
   25 O                |  24 O                |  35 H                |   124.90
   26 O                |  24 O                |  35 H                |    77.44
   25 O                |  23 P                |  22 O                |   102.83
   22 O                |  25 O                |  24 O                |    62.30
   22 O                |  25 O                |  26 O                |    61.12
   22 O                |  25 O                |  36 H                |   124.50
   25 O                |  23 P                |  24 O                |   106.51
   25 O                |  23 P                |  26 O                |   111.61
   23 P                |  25 O                |  36 H                |   109.52
   25 O                |  26 O                |  24 O                |    60.42
   24 O                |  25 O                |  36 H                |   125.31
   26 O                |  25 O                |  36 H                |    77.00
   26 O                |  22 O                |  21 C                |    89.88
   26 O                |  23 P                |  21 C                |    88.06
   21 C                |  26 O                |  24 O                |    78.25
   21 C                |  26 O                |  25 O                |    86.48
   26 O                |  23 P                |  22 O                |   112.84
   22 O                |  26 O                |  24 O                |    61.67
   26 O                |  25 O                |  22 O                |    61.12
   26 O                |  23 P                |  24 O                |   112.71
   26 O                |  23 P                |  25 O                |   111.61
   24 O                |  26 O                |  25 O                |    60.42
   27 H                |   1 O                |   2 P                |   109.50
   28 H                |   3 O                |   2 P                |   109.53
   29 H                |   7 C                |   6 C                |   120.15
    6 C                |  29 H                |   8 C                |    68.44
   29 H                |   7 C                |   8 C                |   120.19
   30 H                |  11 O                |  10 P                |   109.48
   31 H                |  12 O                |  10 P                |   109.50
   32 H                |  14 C                |  16 P                |    71.37
   32 H                |  20 C                |  14 C                |   120.13
   14 C                |  32 H                |  21 C                |    68.72
   16 P                |  32 H                |  20 C                |    94.76
   16 P                |  32 H                |  21 C                |   127.33
   32 H                |  20 C                |  21 C                |   120.13
   33 H                |  17 O                |  16 P                |   109.47
   34 H                |  18 O                |  16 P                |   109.50
   35 H                |  24 O                |  23 P                |   109.48
   36 H                |  25 O                |  23 P                |   109.52
 ------------------------------------------------------------------------------
                            number of included internuclear angles:        683
 ==============================================================================



  library name resolved from: environment
  library file name is: </cm/shared/NWChem_old/data/libraries/>
  
                      Basis "ao basis" -> "" (cartesian)
                      -----
  O (Oxygen)
  ----------
            Exponent  Coefficients 
       -------------- ---------------------------------------------------------
  1 S  1.30709320E+02  0.154329
  1 S  2.38088610E+01  0.535328
  1 S  6.44360830E+00  0.444635

  2 S  5.03315130E+00 -0.099967
  2 S  1.16959610E+00  0.399513
  2 S  3.80389000E-01  0.700115

  3 P  5.03315130E+00  0.155916
  3 P  1.16959610E+00  0.607684
  3 P  3.80389000E-01  0.391957

  P (Phosphorous)
  ---------------
            Exponent  Coefficients 
       -------------- ---------------------------------------------------------
  1 S  4.68365638E+02  0.154329
  1 S  8.53133856E+01  0.535328
  1 S  2.30891316E+01  0.444635

  2 S  2.80326396E+01 -0.099967
  2 S  6.51418258E+00  0.399513
  2 S  2.11861435E+00  0.700115

  3 P  2.80326396E+01  0.155916
  3 P  6.51418258E+00  0.607684
  3 P  2.11861435E+00  0.391957

  4 S  1.74310323E+00 -0.219620
  4 S  4.86321377E-01  0.225595
  4 S  1.90342891E-01  0.900398

  5 P  1.74310323E+00  0.010588
  5 P  4.86321377E-01  0.595167
  5 P  1.90342891E-01  0.462001

  H (Hydrogen)
  ------------
            Exponent  Coefficients 
       -------------- ---------------------------------------------------------
  1 S  3.42525091E+00  0.154329
  1 S  6.23913730E-01  0.535328
  1 S  1.68855400E-01  0.444635

  C (Carbon)
  ----------
            Exponent  Coefficients 
       -------------- ---------------------------------------------------------
  1 S  7.16168370E+01  0.154329
  1 S  1.30450960E+01  0.535328
  1 S  3.53051220E+00  0.444635

  2 S  2.94124940E+00 -0.099967
  2 S  6.83483100E-01  0.399513
  2 S  2.22289900E-01  0.700115

  3 P  2.94124940E+00  0.155916
  3 P  6.83483100E-01  0.607684
  3 P  2.22289900E-01  0.391957



 Summary of "ao basis" -> "" (cartesian)
 ------------------------------------------------------------------------------
       Tag                 Description            Shells   Functions and Types
 ---------------- ------------------------------  ------  ---------------------
 O                           STO-3G                  3        5   2s1p
 P                           STO-3G                  5        9   3s2p
 H                           STO-3G                  1        1   1s
 C                           STO-3G                  3        5   2s1p



  Deleted DRIVER restart files 



                           NWChem Geometry Optimization
                           ----------------------------




                BtkP TDC calculation number 14 in STO-3G basis set


 maximum gradient threshold         (gmax) =   0.000450
 rms gradient threshold             (grms) =   0.000300
 maximum cartesian step threshold   (xmax) =   0.001800
 rms cartesian step threshold       (xrms) =   0.001200
 fixed trust radius                (trust) =   0.300000
 maximum step size to saddle      (sadstp) =   0.100000
 energy precision                  (eprec) =   5.0D-06
 maximum number of steps          (nptopt) = 1000
 initial hessian option           (inhess) =    0
 line search option               (linopt) =    1
 hessian update option            (modupd) =    1
 saddle point option              (modsad) =    0
 initial eigen-mode to follow     (moddir) =    0
 initial variable to follow       (vardir) =    0
 follow first negative mode     (firstneg) =    T
 apply conjugacy                    (opcg) =    F
 source of zmatrix                         =           


          -------------------
          Energy Minimization
          -------------------


 Using diagonal initial Hessian 

          --------
          Step   0
          --------


                         Geometry "geometry" -> "geometry"
                         ---------------------------------

 Output coordinates in a.u. (scale by  1.000000000 to convert to a.u.)

  No.       Tag          Charge          X              Y              Z
 ---- ---------------- ---------- -------------- -------------- --------------
    1 O                    8.0000   -13.54200000   -60.77900000    75.09200000
    2 P                   15.0000   -12.19700000   -61.63800000    75.22600000
    3 O                    8.0000   -12.68000000   -63.18300000    75.33000000
    4 O                    8.0000   -11.42100000   -61.24700000    76.41200000
    5 O                    8.0000   -11.40700000   -61.42000000    73.83300000
    6 C                    6.0000   -11.34700000   -62.48300000    72.97900000
    7 C                    6.0000   -10.31300000   -63.41700000    73.10700000
    8 C                    6.0000   -10.24300000   -64.50900000    72.21400000
    9 O                    8.0000    -9.21600000   -65.40200000    72.39800000
   10 P                   15.0000    -9.16200000   -66.26000000    73.78600000
   11 O                    8.0000    -8.41800000   -67.62200000    73.40700000
   12 O                    8.0000    -8.23800000   -65.49000000    74.86400000
[...]
    64: task dft optimize
 ------------------------------------------------------------------------
 ------------------------------------------------------------------------
 There is an error related to the specified geometry
 ------------------------------------------------------------------------
 For more information see the NWChem manual at http://www.nwchem-sw.org/index.php/NWChem_Documentation


 For further details see manual section:                                                                                                                                                                                                                                                                
0:0:driver: task_gradient failed:: -1
(rank:0 hostname:g26 pid:16689):ARMCI DASSERT fail. ../../ga-5-3/armci/src/common/armci.c:ARMCI_Error():208 cond:0
 driver: task_gradient failed                   0
 ------------------------------------------------------------------------
 ------------------------------------------------------------------------
  current input line : 
     0: 
 ------------------------------------------------------------------------
 ------------------------------------------------------------------------
 There is an error related to the specified geometry
 ------------------------------------------------------------------------
 For more information see the NWChem manual at http://www.nwchem-sw.org/index.php/NWChem_Documentation


 For further details see manual section:                                                                                                                                                                                                                                                                
1:1:driver: task_gradient failed:: -1
(rank:1 hostname:g26 pid:16690):ARMCI DASSERT fail. ../../ga-5-3/armci/src/common/armci.c:ARMCI_Error():208 cond:0
 driver: task_gradient failed                   0
 ------------------------------------------------------------------------
 ------------------------------------------------------------------------
  current input line : 
     0: 
 ------------------------------------------------------------------------
 ------------------------------------------------------------------------
 There is an error related to the specified geometry
 ------------------------------------------------------------------------
 For more information see the NWChem manual at http://www.nwchem-sw.org/index.php/NWChem_Documentation


 For further details see manual section:                                                                                                                                                                                                                                                                
2:2:driver: task_gradient failed:: -1
(rank:2 hostname:g26 pid:16691):ARMCI DASSERT fail. ../../ga-5-3/armci/src/common/armci.c:ARMCI_Error():208 cond:0
 driver: task_gradient failed                   0
 ------------------------------------------------------------------------
 ------------------------------------------------------------------------
  current input line : 
     0: 
 ------------------------------------------------------------------------
 ------------------------------------------------------------------------
 There is an error related to the specified geometry
 ------------------------------------------------------------------------
 For more information see the NWChem manual at http://www.nwchem-sw.org/index.php/NWChem_Documentation


 For further details see manual section:                                                                                                                                                                                                                                                                
3:3:driver: task_gradient failed:: -1
(rank:3 hostname:g26 pid:16692):ARMCI DASSERT fail. ../../ga-5-3/armci/src/common/armci.c:ARMCI_Error():208 cond:0
 driver: task_gradient failed                   0
 ------------------------------------------------------------------------
 ------------------------------------------------------------------------
  current input line : 
     0: 
 ------------------------------------------------------------------------
 ------------------------------------------------------------------------
 There is an error related to the specified geometry
 ------------------------------------------------------------------------
 For more information see the NWChem manual at http://www.nwchem-sw.org/index.php/NWChem_Documentation


 For further details see manual section:                                                                                                                                                                                                                                                                
4:4:driver: task_gradient failed:: -1
(rank:4 hostname:g26 pid:16693):ARMCI DASSERT fail. ../../ga-5-3/armci/src/common/armci.c:ARMCI_Error():208 cond:0
 driver: task_gradient failed                   0
 ------------------------------------------------------------------------
 ------------------------------------------------------------------------
  current input line : 
     0: 
 ------------------------------------------------------------------------
 ------------------------------------------------------------------------
 There is an error related to the specified geometry
 ------------------------------------------------------------------------
 For more information see the NWChem manual at http://www.nwchem-sw.org/index.php/NWChem_Documentation


 For further details see manual section:                                                                                                                                                                                                                                                                
5:5:driver: task_gradient failed:: -1
(rank:5 hostname:g26 pid:16694):ARMCI DASSERT fail. ../../ga-5-3/armci/src/common/armci.c:ARMCI_Error():208 cond:0
 driver: task_gradient failed                   0
 ------------------------------------------------------------------------
 ------------------------------------------------------------------------
  current input line : 
     0: 
 ------------------------------------------------------------------------
 ------------------------------------------------------------------------
 There is an error related to the specified geometry
 ------------------------------------------------------------------------
 For more information see the NWChem manual at http://www.nwchem-sw.org/index.php/NWChem_Documentation


 For further details see manual section:                                                                                                                                                                                                                                                                
6:6:driver: task_gradient failed:: -1
(rank:6 hostname:g26 pid:16695):ARMCI DASSERT fail. ../../ga-5-3/armci/src/common/armci.c:ARMCI_Error():208 cond:0
 driver: task_gradient failed                   0
 ------------------------------------------------------------------------
 ------------------------------------------------------------------------
  current input line : 
     0: 
 ------------------------------------------------------------------------
 ------------------------------------------------------------------------
 There is an error related to the specified geometry
 ------------------------------------------------------------------------
 For more information see the NWChem manual at http://www.nwchem-sw.org/index.php/NWChem_Documentation


 For further details see manual section:                                                                                                                                                                                                                                                                
7:7:driver: task_gradient failed:: -1
(rank:7 hostname:g26 pid:16696):ARMCI DASSERT fail. ../../ga-5-3/armci/src/common/armci.c:ARMCI_Error():208 cond:0
 driver: task_gradient failed                   0
 ------------------------------------------------------------------------
 ------------------------------------------------------------------------
  current input line : 
     0: 
 ------------------------------------------------------------------------
 ------------------------------------------------------------------------
 There is an error related to the specified geometry
 ------------------------------------------------------------------------
 For more information see the NWChem manual at http://www.nwchem-sw.org/index.php/NWChem_Documentation


 For further details see manual section:                                                                                                                                                                                                                                                                
8:8:driver: task_gradient failed:: -1
(rank:8 hostname:g26 pid:16697):ARMCI DASSERT fail. ../../ga-5-3/armci/src/common/armci.c:ARMCI_Error():208 cond:0
 driver: task_gradient failed                   0
 ------------------------------------------------------------------------
 ------------------------------------------------------------------------
  current input line : 
     0: 
 ------------------------------------------------------------------------
 ------------------------------------------------------------------------
 There is an error related to the specified geometry
 ------------------------------------------------------------------------
 For more information see the NWChem manual at http://www.nwchem-sw.org/index.php/NWChem_Documentation


 For further details see manual section:                                                                                                                                                                                                                                                                
9:9:driver: task_gradient failed:: -1
(rank:9 hostname:g26 pid:16698):ARMCI DASSERT fail. ../../ga-5-3/armci/src/common/armci.c:ARMCI_Error():208 cond:0
 driver: task_gradient failed                   0
 ------------------------------------------------------------------------
 ------------------------------------------------------------------------
  current input line : 
     0: 
 ------------------------------------------------------------------------
 ------------------------------------------------------------------------
 There is an error related to the specified geometry
 ------------------------------------------------------------------------
 For more information see the NWChem manual at http://www.nwchem-sw.org/index.php/NWChem_Documentation


 For further details see manual section:                                                                                                                                                                                                                                                                
10:10:driver: task_gradient failed:: -1
(rank:10 hostname:g26 pid:16699):ARMCI DASSERT fail. ../../ga-5-3/armci/src/common/armci.c:ARMCI_Error():208 cond:0
 driver: task_gradient failed                   0
 ------------------------------------------------------------------------
 ------------------------------------------------------------------------
  current input line : 
     0: 
 ------------------------------------------------------------------------
 ------------------------------------------------------------------------
 There is an error related to the specified geometry
 ------------------------------------------------------------------------
 For more information see the NWChem manual at http://www.nwchem-sw.org/index.php/NWChem_Documentation


 For further details see manual section:                                                                                                                                                                                                                                                                
11:11:driver: task_gradient failed:: -1
(rank:11 hostname:g26 pid:16700):ARMCI DASSERT fail. ../../ga-5-3/armci/src/common/armci.c:ARMCI_Error():208 cond:0
 driver: task_gradient failed                   0
 ------------------------------------------------------------------------
 ------------------------------------------------------------------------
  current input line : 
     0: 
 ------------------------------------------------------------------------
 ------------------------------------------------------------------------
 There is an error related to the specified geometry
 ------------------------------------------------------------------------
 For more information see the NWChem manual at http://www.nwchem-sw.org/index.php/NWChem_Documentation


 For further details see manual section:                                                                                                                                                                                                                                                                
12:12:driver: task_gradient failed:: -1
(rank:12 hostname:g26 pid:16701):ARMCI DASSERT fail. ../../ga-5-3/armci/src/common/armci.c:ARMCI_Error():208 cond:0
 driver: task_gradient failed                   0
 ------------------------------------------------------------------------
 ------------------------------------------------------------------------
  current input line : 
     0: 
 ------------------------------------------------------------------------
 ------------------------------------------------------------------------
 There is an error related to the specified geometry
 ------------------------------------------------------------------------
 For more information see the NWChem manual at http://www.nwchem-sw.org/index.php/NWChem_Documentation


 For further details see manual section:                                                                                                                                                                                                                                                                
13:13:driver: task_gradient failed:: -1
(rank:13 hostname:g26 pid:16702):ARMCI DASSERT fail. ../../ga-5-3/armci/src/common/armci.c:ARMCI_Error():208 cond:0
 driver: task_gradient failed                   0
 ------------------------------------------------------------------------
 ------------------------------------------------------------------------
  current input line : 
     0: 
 ------------------------------------------------------------------------
 ------------------------------------------------------------------------
 There is an error related to the specified geometry
 ------------------------------------------------------------------------
 For more information see the NWChem manual at http://www.nwchem-sw.org/index.php/NWChem_Documentation


 For further details see manual section:                                                                                                                                                                                                                                                                
14:14:driver: task_gradient failed:: -1
(rank:14 hostname:g26 pid:16703):ARMCI DASSERT fail. ../../ga-5-3/armci/src/common/armci.c:ARMCI_Error():208 cond:0
 driver: task_gradient failed                   0
 ------------------------------------------------------------------------
 ------------------------------------------------------------------------
  current input line : 
     0: 
 ------------------------------------------------------------------------
 ------------------------------------------------------------------------
 There is an error related to the specified geometry
 ------------------------------------------------------------------------
 For more information see the NWChem manual at http://www.nwchem-sw.org/index.php/NWChem_Documentation


 For further details see manual section:                                                                                                                                                                                                                                                                
15:15:driver: task_gradient failed:: -1
(rank:15 hostname:g26 pid:16704):ARMCI DASSERT fail. ../../ga-5-3/armci/src/common/armci.c:ARMCI_Error():208 cond:0
 driver: task_gradient failed                   0
 ------------------------------------------------------------------------
 ------------------------------------------------------------------------
  current input line : 
     0: 
 ------------------------------------------------------------------------
 ------------------------------------------------------------------------
 There is an error related to the specified geometry
 ------------------------------------------------------------------------
 For more information see the NWChem manual at http://www.nwchem-sw.org/index.php/NWChem_Documentation


 For further details see manual section:                                                                                                                                                                                                                                                                
16:16:driver: task_gradient failed:: -1
(rank:16 hostname:g26 pid:16705):ARMCI DASSERT fail. ../../ga-5-3/armci/src/common/armci.c:ARMCI_Error():208 cond:0
 driver: task_gradient failed                   0
 ------------------------------------------------------------------------
 ------------------------------------------------------------------------
  current input line : 
     0: 
 ------------------------------------------------------------------------
 ------------------------------------------------------------------------
 There is an error related to the specified geometry
 ------------------------------------------------------------------------
 For more information see the NWChem manual at http://www.nwchem-sw.org/index.php/NWChem_Documentation


 For further details see manual section:                                                                                                                                                                                                                                                                
17:17:driver: task_gradient failed:: -1
(rank:17 hostname:g26 pid:16706):ARMCI DASSERT fail. ../../ga-5-3/armci/src/common/armci.c:ARMCI_Error():208 cond:0
 driver: task_gradient failed                   0
 ------------------------------------------------------------------------
 ------------------------------------------------------------------------
  current input line : 
     0: 
 ------------------------------------------------------------------------
 ------------------------------------------------------------------------
 There is an error related to the specified geometry
 ------------------------------------------------------------------------
 For more information see the NWChem manual at http://www.nwchem-sw.org/index.php/NWChem_Documentation


 For further details see manual section:                                                                                                                                                                                                                                                                
18:18:driver: task_gradient failed:: -1
(rank:18 hostname:g26 pid:16707):ARMCI DASSERT fail. ../../ga-5-3/armci/src/common/armci.c:ARMCI_Error():208 cond:0
